<UPF version="2.0.1">
<PP_INFO>
Generated by new atomic code, or converted to UPF format
Author:
Generation date:
Pseudopotential type: US
Element: Zn
Functional:  SLA  PW   PBE  PBE
Suggested minimum cutoff for wavefunctions:   0. Ry
Suggested minimum cutoff for charge density:   0. Ry
The Pseudo was generated with a Scalar-Relativistic Calculation
L component and cutoff radius for Local Potential:  0   0.0000
Valence configuration:
nl pn  l   occ       Rcut    Rcut US       E pseu
3D  0  2 10.00     10.000      2.000     0.000000
4S  0  0  2.00     10.000      2.000     0.000000
Generation configuration: not available.
</PP_INFO>
<!--
END OF HUMAN READABLE SECTION
-->
<PP_HEADER generated="Generated by new atomic code, or converted to UPF format" author="" date="" comment="" element="Zn" pseudo_type="US" relativistic="scalar" is_ultrasoft="true" is_paw="false" is_coulomb="false" has_so="false" has_wfc="false" has_gipaw="false" paw_as_gipaw="false" core_correction="false" functional=" SLA  PW   PBE  PBE" z_valence="1.200000000000e1" total_psenergy="-1.265016970369e2" wfc_cutoff="0.000000000000e0" rho_cutoff="0.000000000000e0" l_max="2" l_max_rho="0" l_local="0" mesh_size="869" number_of_wfc="2" number_of_proj="6"/>
<PP_MESH mesh="869" rmax="2.024851634730e2" zmesh="3.000000000000e1">
<PP_R>
0.000000000000000e0 1.412360302670000e-6 2.848862933600000e-6 4.309920572200001e-6
5.795952952059999e-6 7.307386981529998e-6 8.844656866359999e-6 1.040820423440000e-5
1.199847826270000e-5 1.361593580600000e-5 1.526104152870000e-5 1.693426803770000e-5
1.863609601880000e-5 2.036701437410001e-5 2.212752036300000e-5 2.391811974490000e-5
2.573932692410001e-5 2.759166509840000e-5 2.947566640860000e-5 3.139187209190000e-5
3.334083263700000e-5 3.532310794270000e-5 3.733926747820000e-5 3.938989044730001e-5
4.147556595410000e-5 4.359689317290000e-5 4.575448151990000e-5 4.794895082860001e-5
5.018093152740001e-5 5.245106482140001e-5 5.476000287570000e-5 5.710840900380000e-5
5.949695785710000e-5 6.192633561959999e-5 6.439724020440001e-5 6.691038145470001e-5
6.946648134730003e-5 7.206627420020001e-5 7.471050688370001e-5 7.739993903450002e-5
8.013534327459999e-5 8.291750543250000e-5 8.574722476980002e-5 8.862531420989999e-5
9.155260057229999e-5 9.452992480970000e-5 9.755814224970001e-5 1.006381228410000e-4
1.037707514010000e-4 1.069569278750000e-4 1.101975675900000e-4 1.134936015170000e-4
1.168459765440000e-4 1.202556557440000e-4 1.237236186510000e-4 1.272508615450000e-4
1.308383977320000e-4 1.344872578440000e-4 1.381984901280000e-4 1.419731607470000e-4
1.458123540930000e-4 1.497171730910000e-4 1.536887395210000e-4 1.577281943350000e-4
1.618366979930000e-4 1.660154307860000e-4 1.702655931850000e-4 1.745884061780000e-4
1.789851116260000e-4 1.834569726180000e-4 1.880052738330000e-4 1.926313219090000e-4
1.973364458200000e-4 2.021219972590000e-4 2.069893510210000e-4 2.119399054020000e-4
2.169750826010000e-4 2.220963291280000e-4 2.273051162160000e-4 2.326029402500000e-4
2.379913231930000e-4 2.434718130210000e-4 2.490459841750000e-4 2.547154380049999e-4
2.604818032360000e-4 2.663467364330000e-4 2.723119224780000e-4 2.783790750530000e-4
2.845499371350000e-4 2.908262814910000e-4 2.972099111940001e-4 3.037026601390000e-4
3.103063935650000e-4 3.170230085980000e-4 3.238544347910000e-4 3.308026346810000e-4
3.378696043510000e-4 3.450573740040000e-4 3.523680085490000e-4 3.598036081880001e-4
3.673663090260000e-4 3.750582836800000e-4 3.828817419060000e-4 3.908389312310000e-4
3.989321376030000e-4 4.071636860430000e-4 4.155359413149999e-4 4.240513086070000e-4
4.327122342190001e-4 4.415212062660000e-4 4.504807553970000e-4 4.595934555160000e-4
4.688619245260001e-4 4.782888250790000e-4 4.878768653400000e-4 4.976287997680001e-4
5.075474299050001e-4 5.176356051819999e-4 5.278962237360001e-4 5.383322332440001e-4
5.489466317699999e-4 5.597424686260001e-4 5.707228452450000e-4 5.818909160790000e-4
5.932498894970001e-4 6.048030287130000e-4 6.165536527200000e-4 6.285051372450000e-4
6.406609157190001e-4 6.530244802610000e-4 6.655993826840000e-4 6.783892355139999e-4
6.913977130280000e-4 7.046285523110001e-4 7.180855543269999e-4 7.317725850100000e-4
7.456935763820000e-4 7.598525276730000e-4 7.742535064759998e-4 7.889006499130000e-4
8.037981658249999e-4 8.189503339810001e-4 8.343615073050001e-4 8.500361131289999e-4
8.659786544640001e-4 8.821937112930000e-4 8.986859418880000e-4 9.154600841490000e-4
9.325209569619998e-4 9.498734615849999e-4 9.675225830570000e-4 9.854733916300001e-4
1.003731044220000e-3 1.022300785910000e-3 1.041187951410000e-3 1.060397966640000e-3
1.079936350280000e-3 1.099808715320000e-3 1.120020770700000e-3 1.140578322960000e-3
1.161487277890000e-3 1.182753642220000e-3 1.204383525370000e-3 1.226383141180000e-3
1.248758809730000e-3 1.271516959100000e-3 1.294664127270000e-3 1.318206963980000e-3
1.342152232620000e-3 1.366506812210000e-3 1.391277699360000e-3 1.416472010240000e-3
1.442096982710000e-3 1.468159978330000e-3 1.494668484470000e-3 1.521630116540000e-3
1.549052620080000e-3 1.576943873040000e-3 1.605311888050000e-3 1.634164814680000e-3
1.663510941830000e-3 1.693358700060000e-3 1.723716664070000e-3 1.754593555100000e-3
1.785998243490000e-3 1.817939751210000e-3 1.850427254410000e-3 1.883470086150000e-3
1.917077738980000e-3 1.951259867730000e-3 1.986026292270000e-3 2.021387000310000e-3
2.057352150309999e-3 2.093932074350000e-3 2.131137281150000e-3 2.168978459030000e-3
2.207466479030000e-3 2.246612398020000e-3 2.286427461870000e-3 2.326923108660000e-3
2.368110972020000e-3 2.410002884420000e-3 2.452610880600000e-3 2.495947201010000e-3
2.540024295340000e-3 2.584854826070000e-3 2.630451672170000e-3 2.676827932710000e-3
2.723996930710000e-3 2.771972216899999e-3 2.820767573640000e-3 2.870397018920000e-3
2.920874810290000e-3 2.972215449060000e-3 3.024433684410000e-3 3.077544517600000e-3
3.131563206370000e-3 3.186505269230000e-3 3.242386489980000e-3 3.299222922209999e-3
3.357030893930000e-3 3.415827012250000e-3 3.475628168150000e-3 3.536451541350000e-3
3.598314605240000e-3 3.661235131860000e-3 3.725231197070000e-3 3.790321185710000e-3
3.856523796850000e-3 3.923858049250000e-3 3.992343286710000e-3 4.061999183730000e-3
4.132845751100001e-3 4.204903341660000e-3 4.278192656170000e-3 4.352734749230000e-3
4.428551035330000e-3 4.505663295040000e-3 4.584093681200000e-3 4.663864725360000e-3
4.744999344189999e-3 4.827520846100001e-3 4.911452937910000e-3 4.996819731700000e-3
5.083645751690000e-3 5.171955941310000e-3 5.261775670380000e-3 5.353130742360000e-3
5.446047401800000e-3 5.540552341860000e-3 5.636672711970000e-3 5.734436125670000e-3
5.833870668490000e-3 5.935004906040000e-3 6.037867892240000e-3 6.142489177630001e-3
6.248898817880000e-3 6.357127382420000e-3 6.467205963240000e-3 6.579166183760000e-3
6.693040208000001e-3 6.808860749759999e-3 6.926661082040000e-3 7.046475046599999e-3
7.168337063669999e-3 7.292282141849999e-3 7.418345888159999e-3 7.546564518270000e-3
7.676974866929999e-3 7.809614398490000e-3 7.944521217729999e-3 8.081734080770000e-3
8.221292406210001e-3 8.363236286450000e-3 8.507606499220000e-3 8.654444519289999e-3
8.803792530390000e-3 8.955693437310000e-3 9.110190878239999e-3 9.267329237300002e-3
9.427153657300000e-3 9.589710052710000e-3 9.755045122840000e-3 9.923206365240000e-3
1.009424208940000e-2 1.026820143060000e-2 1.044513436390000e-2 1.062509171880000e-2
1.080812519350000e-2 1.099428737000000e-2 1.118363172910000e-2 1.137621266580000e-2
1.157208550480000e-2 1.177130651670000e-2 1.197393293370000e-2 1.218002296650000e-2
1.238963582080000e-2 1.260283171430000e-2 1.281967189410000e-2 1.304021865410000e-2
1.326453535320000e-2 1.349268643320000e-2 1.372473743750000e-2 1.396075502990000e-2
1.420080701360000e-2 1.444496235100000e-2 1.469329118310000e-2 1.494586485000000e-2
1.520275591120000e-2 1.546403816670000e-2 1.572978667760000e-2 1.600007778850000e-2
1.627498914860000e-2 1.655459973480000e-2 1.683898987380000e-2 1.712824126530000e-2
1.742243700560000e-2 1.772166161150000e-2 1.802600104450000e-2 1.833554273530000e-2
1.865037560930000e-2 1.897059011200000e-2 1.929627823460000e-2 1.962753354120000e-2
1.996445119490000e-2 2.030712798570000e-2 2.065566235810000e-2 2.101015443910000e-2
2.137070606740000e-2 2.173742082270000e-2 2.211040405490000e-2 2.248976291500000e-2
2.287560638530000e-2 2.326804531130000e-2 2.366719243300000e-2 2.407316241760000e-2
2.448607189260000e-2 2.490603947890000e-2 2.533318582480000e-2 2.576763364150000e-2
2.620950773720000e-2 2.665893505400000e-2 2.711604470340000e-2 2.758096800440000e-2
2.805383852040000e-2 2.853479209790000e-2 2.902396690560000e-2 2.952150347390000e-2
3.002754473540000e-2 3.054223606610000e-2 3.106572532680000e-2 3.159816290590000e-2
3.213970176220000e-2 3.269049746950000e-2 3.325070826080001e-2 3.382049507370000e-2
3.440002159690000e-2 3.498945431730000e-2 3.558896256740000e-2 3.619871857430001e-2
3.681889750920000e-2 3.744967753750000e-2 3.809123987000000e-2 3.874376881530000e-2
3.940745183210001e-2 4.008247958390000e-2 4.076904599310000e-2 4.146734829680000e-2
4.217758710380000e-2 4.289996645210000e-2 4.363469386710000e-2 4.438198042190001e-2
4.514204079740000e-2 4.591509334430000e-2 4.670136014560001e-2 4.750106708050000e-2
4.831444388940000e-2 4.914172423970000e-2 4.998314579310001e-2 5.083895027350001e-2
5.170938353720000e-2 5.259469564280000e-2 5.349514092320000e-2 5.441097805910000e-2
5.534247015260000e-2 5.628988480350000e-2 5.725349418550000e-2 5.823357512519999e-2
5.923040918070001e-2 6.024428272320001e-2 6.127548701889999e-2 6.232431831290000e-2
6.339107791409999e-2 6.447607228190000e-2 6.557961311420001e-2 6.670201743690001e-2
6.784360769499999e-2 6.900471184540001e-2 7.018566345080001e-2 7.138680177570000e-2
7.260847188400001e-2 7.385102473780001e-2 7.511481729850001e-2 7.640021262920000e-2
7.770757999930000e-2 7.903729498990000e-2 8.038973960250001e-2 8.176530236830001e-2
8.316437845990000e-2 8.458736980459999e-2 8.603468520040000e-2 8.750674043310001e-2
8.900395839550001e-2 9.052676920940000e-2 9.207561034899999e-2 9.365092676620000e-2
9.525317101910000e-2 9.688280340130000e-2 9.854029207480000e-2 1.002261132040000e-1
1.019407510930000e-1 1.036846983230000e-1 1.054584558970000e-1 1.072625333820000e-1
1.090974490530000e-1 1.109637300470000e-1 1.128619125100000e-1 1.147925417530000e-1
1.167561724090000e-1 1.187533685900000e-1 1.207847040530000e-1 1.228507623600000e-1
1.249521370510000e-1 1.270894318090000e-1 1.292632606380000e-1 1.314742480370000e-1
1.337230291810000e-1 1.360102500990000e-1 1.383365678670000e-1 1.407026507910000e-1
1.431091786000000e-1 1.455568426430000e-1 1.480463460870000e-1 1.505784041190000e-1
1.531537441480000e-1 1.557731060210000e-1 1.584372422300000e-1 1.611469181290000e-1
1.639029121560000e-1 1.667060160540000e-1 1.695570351020000e-1 1.724567883410000e-1
1.754061088150000e-1 1.784058438060000e-1 1.814568550810000e-1 1.845600191350000e-1
1.877162274480000e-1 1.909263867370000e-1 1.941914192190000e-1 1.975122628750000e-1
2.008898717190000e-1 2.043252160710000e-1 2.078192828410000e-1 2.113730758060000e-1
2.149876159020000e-1 2.186639415170000e-1 2.224031087870000e-1 2.262061919030000e-1
2.300742834180000e-1 2.340084945580000e-1 2.380099555480000e-1 2.420798159280000e-1
2.462192448920000e-1 2.504294316170000e-1 2.547115856080000e-1 2.590669370450000e-1
2.634967371370000e-1 2.680022584790000e-1 2.725847954200000e-1 2.772456644350000e-1
2.819862045010000e-1 2.868077774840000e-1 2.917117685270000e-1 2.966995864540000e-1
3.017726641660000e-1 3.069324590630000e-1 3.121804534510000e-1 3.175181549800000e-1
3.229470970670000e-1 3.284688393430000e-1 3.340849680960000e-1 3.397970967320000e-1
3.456068662360000e-1 3.515159456410000e-1 3.575260325110000e-1 3.636388534290000e-1
3.698561644900000e-1 3.761797518060000e-1 3.826114320210000e-1 3.891530528340000e-1
3.958064935260000e-1 4.025736655000000e-1 4.094565128350000e-1 4.164570128390000e-1
4.235771766210000e-1 4.308190496650000e-1 4.381847124230000e-1 4.456762809050000e-1
4.532959072960000e-1 4.610457805650000e-1 4.689281271030000e-1 4.769452113530000e-1
4.850993364700000e-1 4.933928449770000e-1 5.018281194360000e-1 5.104075831400000e-1
5.191337008020001e-1 5.280089792679999e-1 5.370359682319999e-1 5.462172609750001e-1
5.555554951030000e-1 5.650533533110000e-1 5.747135641500000e-1 5.845389028120000e-1
5.945321919250000e-1 6.046963023689999e-1 6.150341540960000e-1 6.255487169710000e-1
6.362430116240000e-1 6.471201103180000e-1 6.581831378350000e-1 6.694352723670000e-1
6.808797464360000e-1 6.925198478160000e-1 7.043589204850001e-1 7.164003655780000e-1
7.286476423700000e-1 7.411042692660001e-1 7.537738248140000e-1 7.666599487320001e-1
7.797663429550000e-1 7.930967726960000e-1 8.066550675289999e-1 8.204451224900000e-1
8.344708991950000e-1 8.487364269780000e-1 8.632458040490000e-1 8.780031986720001e-1
8.930128503610000e-1 9.082790710970000e-1 9.238062465710000e-1 9.395988374400000e-1
9.556613806100000e-1 9.719984905370001e-1 9.886148605590000e-1 1.005515264240000e0
1.022704556730000e0 1.040187676190000e0 1.057969645170000e0 1.076055572100000e0
1.094450652710000e0 1.113160171540000e0 1.132189503490000e0 1.151544115320000e0
1.171229567220000e0 1.191251514450000e0 1.211615708920000e0 1.232328000880000e0
1.253394340560000e0 1.274820779920000e0 1.296613474350000e0 1.318778684490000e0
1.341322777950000e0 1.364252231230000e0 1.387573631520000e0 1.411293678590000e0
1.435419186770000e0 1.459957086830000e0 1.484914428060000e0 1.510298380200000e0
1.536116235580000e0 1.562375411160000e0 1.589083450700000e0 1.616248026910000e0
1.643876943630000e0 1.671978138120000e0 1.700559683320000e0 1.729629790140000e0
1.759196809870000e0 1.789269236540000e0 1.819855709370000e0 1.850965015260000e0
1.882606091330000e0 1.914788027430000e0 1.947520068810000e0 1.980811618760000e0
2.014672241300000e0 2.049111663920000e0 2.084139780410000e0 2.119766653660000e0
2.156002518590000e0 2.192857785060000e0 2.230343040870000e0 2.268469054820000e0
2.307246779770000e0 2.346687355800000e0 2.386802113440000e0 2.427602576880000e0
2.469100467290000e0 2.511307706230000e0 2.554236419020000e0 2.597898938230000e0
2.642307807280000e0 2.687475783960000e0 2.733415844170000e0 2.780141185600000e0
2.827665231520000e0 2.876001634690000e0 2.925164281210000e0 2.975167294550000e0
3.026025039630000e0 3.077752126880000e0 3.130363416500000e0 3.183874022690000e0
3.238299318010000e0 3.293654937790000e0 3.349956784650000e0 3.407221033000000e0
3.465464133750000e0 3.524702819030000e0 3.584954106960000e0 3.646235306570000e0
3.708564022760000e0 3.771958161360000e0 3.836435934300000e0 3.902015864770000e0
3.968716792630000e0 4.036557879770000e0 4.105558615610000e0 4.175738822730000e0
4.247118662550000e0 4.319718641110000e0 4.393559614980000e0 4.468662797250000e0
4.545049763600000e0 4.622742458540000e0 4.701763201660000e0 4.782134694110000e0
4.863880025050000e0 4.947022678350000e0 5.031586539260000e0 5.117595901360000e0
5.205075473470000e0 5.294050386770000e0 5.384546202050000e0 5.476588916990000e0
5.570204973680000e0 5.665421266210000e0 5.762265148380000e0 5.860764441560000e0
5.960947442680000e0 6.062842932400000e0 6.166480183300000e0 6.271888968370000e0
6.379099569510000e0 6.488142786250000e0 6.599049944610000e0 6.711852906050000e0
6.826584076680000e0 6.943276416560000e0 7.061963449130000e0 7.182679270880000e0
7.305458561130000e0 7.430336592000000e0 7.557349238520000e0 7.686532988970000e0
7.817924955350000e0 7.951562884020000e0 8.087485166570000e0 8.225730850850001e0
8.366339652170000e0 8.509351964700000e0 8.654808873129999e0 8.802752164410000e0
8.953224339780000e0 9.106268626990000e0 9.261928992700000e0 9.420250155110001e0
9.581277596850001e0 9.745057577960001e0 9.911637149290000e0 1.008106416590000e1
1.025338730090000e1 1.042865605940000e1 1.060692079270000e1 1.078823271290000e1
1.097264390730000e1 1.116020735360000e1 1.135097693540000e1 1.154500745690000e1
1.174235465930000e1 1.194307523680000e1 1.214722685240000e1 1.235486815500000e1
1.256605879580000e1 1.278085944600000e1 1.299933181340000e1 1.322153866110000e1
1.344754382470000e1 1.367741223120000e1 1.391120991720000e1 1.414900404840000e1
1.439086293850000e1 1.463685606870000e1 1.488705410810000e1 1.514152893390000e1
1.540035365170000e1 1.566360261680000e1 1.593135145550000e1 1.620367708700000e1
1.648065774510000e1 1.676237300100000e1 1.704890378600000e1 1.734033241490000e1
1.763674260950000e1 1.793821952270000e1 1.824484976300000e1 1.855672141930000e1
1.887392408630000e1 1.919654889020000e1 1.952468851480000e1 1.985843722840000e1
2.019789091050000e1 2.054314707950000e1 2.089430492090000e1 2.125146531550000e1
2.161473086860000e1 2.198420593940000e1 2.235999667080000e1 2.274221102040000e1
2.313095879080000e1 2.352635166180000e1 2.392850322210000e1 2.433752900210000e1
2.475354650700000e1 2.517667525050000e1 2.560703678930000e1 2.604475475810000e1
2.648995490460000e1 2.694276512630000e1 2.740331550690000e1 2.787173835340000e1
2.834816823470000e1 2.883274201990000e1 2.932559891780000e1 2.982688051640000e1
3.033673082440000e1 3.085529631190000e1 3.138272595260000e1 3.191917126700000e1
3.246478636530000e1 3.301972799230000e1 3.358415557190000e1 3.415823125330000e1
3.474211995720001e1 3.533598942370000e1 3.594001025980000e1 3.655435598920000e1
3.717920310150000e1 3.781473110300000e1 3.846112256880000e1 3.911856319470001e1
3.978724185040000e1 4.046735063460001e1 4.115908492930000e1 4.186264345630000e1
4.257822833450000e1 4.330604513750000e1 4.404630295300000e1 4.479921444270000e1
4.556499590360001e1 4.634386732980000e1 4.713605247600000e1 4.794177892170000e1
4.876127813660000e1 4.959478554680000e1 5.044254060290001e1 5.130478684860001e1
5.218177199040000e1 5.307374796940000e1 5.398097103280000e1 5.490370180840000e1
5.584220537890000e1 5.679675135800000e1 5.776761396850000e1 5.875507212040000e1
5.975940949130000e1 6.078091460790001e1 6.181988092880001e1 6.287660692900000e1
6.395139618530000e1 6.504455746410000e1 6.615640480920000e1 6.728725763300000e1
6.843744080760001e1 6.960728475830000e1 7.079712555880000e1 7.200730502710001e1
7.323817082450001e1 7.449007655500001e1 7.576338186670000e1 7.705845255560000e1
7.837566067060000e1 7.971538462000000e1 8.107800928060000e1 8.246392610799999e1
8.387353324939999e1 8.530723565760001e1 8.676544520760000e1 8.824858081480000e1
8.975706855529999e1 9.129134178840001e1 9.285184128119999e1 9.443901533500000e1
9.605331991410001e1 9.769521877710000e1 9.936518360970000e1 1.010636941600000e2
1.027912383790000e2 1.045483125540000e2 1.063354214610000e2 1.081530785000000e2
1.100018058490000e2 1.118821346120000e2 1.137946049720000e2 1.157397663430000e2
1.177181775330000e2 1.197304069010000e2 1.217770325220000e2 1.238586423520000e2
1.259758343960000e2 1.281292168840000e2 1.303194084400000e2 1.325470382640000e2
1.348127463110000e2 1.371171834750000e2 1.394610117770000e2 1.418449045520000e2
1.442695466470000e2 1.467356346140000e2 1.492438769140000e2 1.517949941160000e2
1.543897191050000e2 1.570287972970000e2 1.597129868480000e2 1.624430588730000e2
1.652197976690000e2 1.680440009390000e2 1.709164800230000e2 1.738380601280000e2
1.768095805680000e2 1.798318950020000e2 1.829058716840000e2 1.860323937070000e2
1.892123592600000e2 1.924466818870000e2 1.957362907450000e2 1.990821308750000e2
2.024851634730000e2
</PP_R>
<PP_RAB>
1.400424958570000e-6 1.424363268780000e-6 1.448710771000000e-6 1.473474459790000e-6
1.498661449280000e-6 1.524278975200000e-6 1.550334396980000e-6 1.576835199830000e-6
1.603788996920000e-6 1.631203531550000e-6 1.659086679390000e-6 1.687446450730000e-6
1.716290992790000e-6 1.745628592030000e-6 1.775467676590000e-6 1.805816818650000e-6
1.836684736940000e-6 1.868080299220000e-6 1.900012524820000e-6 1.932490587240000e-6
1.965523816820000e-6 1.999121703360000e-6 2.033293898880000e-6 2.068050220390000e-6
2.103400652710000e-6 2.139355351330000e-6 2.175924645350000e-6 2.213119040410001e-6
2.250949221750000e-6 2.289426057240000e-6 2.328560600530000e-6 2.368364094230000e-6
2.408847973100000e-6 2.450023867370001e-6 2.491903606100000e-6 2.534499220510000e-6
2.577822947510000e-6 2.621887233149999e-6 2.666704736260000e-6 2.712288332040000e-6
2.758651115760000e-6 2.805806406580000e-6 2.853767751280000e-6 2.902548928230000e-6
2.952163951320000e-6 3.002627073989999e-6 3.053952793310000e-6 3.106155854170000e-6
3.159251253509999e-6 3.213254244590000e-6 3.268180341440001e-6 3.324045323260000e-6
3.380865238980001e-6 3.438656411860000e-6 3.497435444190000e-6 3.557219222040001e-6
3.618024920130000e-6 3.679870006780000e-6 3.742772248870000e-6 3.806749717000000e-6
3.871820790660000e-6 3.938004163510000e-6 4.005318848750000e-6 4.073784184590000e-6
4.143419839800001e-6 4.214245819349999e-6 4.286282470170000e-6 4.359550487010000e-6
4.434070918330001e-6 4.509865172430000e-6 4.586955023529999e-6 4.665362618040001e-6
4.745110480950000e-6 4.826221522280000e-6 4.908719043660000e-6 4.992626745039999e-6
5.077968731469999e-6 5.164769520050000e-6 5.253054046970000e-6 5.342847674669999e-6
5.434176199120001e-6 5.527065857240000e-6 5.621543334419999e-6 5.717635772220000e-6
5.815370776130001e-6 5.914776423540000e-6 6.015881271760000e-6 6.118714366250001e-6
6.223305248990000e-6 6.329683966889999e-6 6.437881080510000e-6 6.547927672789999e-6
6.659855357980000e-6 6.773696290740000e-6 6.889483175360001e-6 7.007249275190002e-6
7.127028422140000e-6 7.248855026439999e-6 7.372764086509999e-6 7.498791199040000e-6
7.626972569169999e-6 7.757345020940000e-6 7.889946007819998e-6 8.024813623500000e-6
8.161986612860000e-6 8.301504383030000e-6 8.443407014760000e-6 8.587735273949999e-6
8.734530623290000e-6 8.883835234269998e-6 9.035691999199999e-6 9.190144543590002e-6
9.347237238669997e-6 9.507015214140003e-6 9.669524371100000e-6 9.834811395310000e-6
1.000292377050000e-5 1.017390979220000e-5 1.034781858120000e-5 1.052470009830000e-5
1.070460515810000e-5 1.088758544370000e-5 1.107369352200000e-5 1.126298285820000e-5
1.145550783140000e-5 1.165132375030000e-5 1.185048686910000e-5 1.205305440340000e-5
1.225908454700000e-5 1.246863648840000e-5 1.268177042780000e-5 1.289854759440000e-5
1.311903026410000e-5 1.334328177740000e-5 1.357136655730000e-5 1.380335012820000e-5
1.403929913450000e-5 1.427928135980000e-5 1.452336574630000e-5 1.477162241470000e-5
1.502412268440000e-5 1.528093909380000e-5 1.554214542140000e-5 1.580781670650000e-5
1.607802927150000e-5 1.635286074320000e-5 1.663239007530000e-5 1.691669757130000e-5
1.720586490710000e-5 1.749997515490000e-5 1.779911280700000e-5 1.810336379970000e-5
1.841281553860000e-5 1.872755692310000e-5 1.904767837220000e-5 1.937327185080000e-5
1.970443089550000e-5 2.004125064190000e-5 2.038382785180000e-5 2.073226094090000e-5
2.108665000750000e-5 2.144709686060000e-5 2.181370504950000e-5 2.218657989390000e-5
2.256582851330000e-5 2.295155985850000e-5 2.334388474280000e-5 2.374291587340000e-5
2.414876788430000e-5 2.456155736900000e-5 2.498140291380000e-5 2.540842513219999e-5
2.584274669950000e-5 2.628449238780000e-5 2.673378910220000e-5 2.719076591690000e-5
2.765555411240000e-5 2.812828721350000e-5 2.860910102720000e-5 2.909813368199999e-5
2.959552566750000e-5 3.010141987490000e-5 3.061596163770001e-5 3.113929877389999e-5
3.167158162800000e-5 3.221296311460000e-5 3.276359876220000e-5 3.332364675770000e-5
3.389326799209999e-5 3.447262610649999e-5 3.506188753940001e-5 3.566122157400001e-5
3.627080038750000e-5 3.689079910010000e-5 3.752139582540001e-5 3.816277172170000e-5
3.881511104380000e-5 3.947860119620000e-5 4.015343278680001e-5 4.083979968160000e-5
4.153789906060000e-5 4.224793147420000e-5 4.297010090090001e-5 4.370461480620000e-5
4.445168420150000e-5 4.521152370560000e-5 4.598435160550000e-5 4.677038991979999e-5
4.756986446210000e-5 4.838300490600000e-5 4.921004485080000e-5 5.005122188940000e-5
5.090677767539999e-5 5.177695799359999e-5 5.266201282980000e-5 5.356219644330000e-5
5.447776743940000e-5 5.540898884390001e-5 5.635612817860000e-5 5.731945753850000e-5
5.829925366930000e-5 5.929579804750000e-5 6.030937696110000e-5 6.134028159170000e-5
6.238880809819999e-5 6.345525770189999e-5 6.453993677330000e-5 6.564315691970000e-5
6.676523507469999e-5 6.790649358990000e-5 6.906726032660002e-5 7.024786875060000e-5
7.144865802809999e-5 7.266997312230000e-5 7.391216489370001e-5 7.517559019969999e-5
7.646061199809999e-5 7.776759945069999e-5 7.909692802980000e-5 8.044897962569999e-5
8.182414265679999e-5 8.322281218060001e-5 8.464539000789999e-5 8.609228481790000e-5
8.756391227529999e-5 8.906069515020000e-5 9.058306343950001e-5 9.213145449010002e-5
9.370631312470000e-5 9.530809176970001e-5 9.693725058529999e-5 9.859425759710000e-5
1.002795888310000e-4 1.019937284510000e-4 1.037371688950000e-4 1.055104110200000e-4
1.073139642450000e-4 1.091483466950000e-4 1.110140853520000e-4 1.129117162090000e-4
1.148417844160000e-4 1.168048444460000e-4 1.188014602470000e-4 1.208322054090000e-4
1.228976633260000e-4 1.249984273630000e-4 1.271351010290000e-4 1.293082981500000e-4
1.315186430420000e-4 1.337667706960000e-4 1.360533269540000e-4 1.383789687000000e-4
1.407443640470000e-4 1.431501925250000e-4 1.455971452840000e-4 1.480859252860000e-4
1.506172475080000e-4 1.531918391500000e-4 1.558104398440000e-4 1.584738018620000e-4
1.611826903370000e-4 1.639378834790000e-4 1.667401728030000e-4 1.695903633520000e-4
1.724892739310000e-4 1.754377373410000e-4 1.784366006170000e-4 1.814867252760000e-4
1.845889875600000e-4 1.877442786870000e-4 1.909535051130000e-4 1.942175887850000e-4
1.975374674130000e-4 2.009140947330000e-4 2.043484407840000e-4 2.078414921870000e-4
2.113942524300000e-4 2.150077421500000e-4 2.186829994350000e-4 2.224210801130000e-4
2.262230580640000e-4 2.300900255210000e-4 2.340230933910000e-4 2.380233915670000e-4
2.420920692570000e-4 2.462302953140000e-4 2.504392585700000e-4 2.547201681790000e-4
2.590742539630000e-4 2.635027667670000e-4 2.680069788170000e-4 2.725881840850000e-4
2.772476986640000e-4 2.819868611420000e-4 2.868070329890000e-4 2.917095989460000e-4
2.966959674260000e-4 3.017675709160000e-4 3.069258663899999e-4 3.121723357260000e-4
3.175084861340000e-4 3.229358505850000e-4 3.284559882570000e-4 3.340704849790000e-4
3.397809536860000e-4 3.455890348860000e-4 3.514963971290000e-4 3.575047374850000e-4
3.636157820340000e-4 3.698312863609999e-4 3.761530360590001e-4 3.825828472460000e-4
3.891225670820000e-4 3.957740743020000e-4 4.025392797540000e-4 4.094201269519999e-4
4.164185926299999e-4 4.235366873120000e-4 4.307764558880000e-4 4.381399782040000e-4
4.456293696570000e-4 4.532467818050001e-4 4.609944029830000e-4 4.688744589320001e-4
4.768892134400000e-4 4.850409689899999e-4 4.933320674260000e-4 5.017648906170001e-4
5.103418611520000e-4 5.190654430290000e-4 5.279381423630001e-4 5.369625081090000e-4
5.461411327930001e-4 5.554766532560000e-4 5.649717514120001e-4 5.746291550210000e-4
5.844516384650000e-4 5.944420235559999e-4 6.046031803380001e-4 6.149380279130000e-4
6.254495352840000e-4 6.361407222040000e-4 6.470146600440001e-4 6.580744726750000e-4
6.693233373679998e-4 6.807644857030000e-4 6.924012045020000e-4 7.042368367679998e-4
7.162747826509999e-4 7.285185004170001e-4 7.409715074520000e-4 7.536373812620000e-4
7.665197605079999e-4 7.796223460480000e-4 7.929489020020000e-4 8.065032568320001e-4
8.202893044400000e-4 8.343110052930001e-4 8.485723875529999e-4 8.630775482389998e-4
8.778306544030000e-4 8.928359443280000e-4 9.080977287420000e-4 9.236203920620001e-4
9.394083936469999e-4 9.554662690850002e-4 9.717986314930000e-4 9.884101728430000e-4
1.005305665310000e-3 1.022489962640000e-3 1.039968001550000e-3 1.057744803140000e-3
1.075825474350000e-3 1.094215209400000e-3 1.112919291300000e-3 1.131943093380000e-3
1.151292080810000e-3 1.170971812170000e-3 1.190987941070000e-3 1.211346217770000e-3
1.232052490790000e-3 1.253112708650000e-3 1.274532921540000e-3 1.296319283080000e-3
1.318478052060000e-3 1.341015594280000e-3 1.363938384320000e-3 1.387253007470000e-3
1.410966161570000e-3 1.435084658930000e-3 1.459615428360000e-3 1.484565517040000e-3
1.509942092680000e-3 1.535752445460000e-3 1.562003990200000e-3 1.588704268450000e-3
1.615860950710000e-3 1.643481838540000e-3 1.671574866900000e-3 1.700148106380000e-3
1.729209765510000e-3 1.758768193140000e-3 1.788831880840000e-3 1.819409465330000e-3
1.850509730950000e-3 1.882141612200000e-3 1.914314196320000e-3 1.947036725860000e-3
1.980318601380000e-3 2.014169384110000e-3 2.048598798730001e-3 2.083616736140000e-3
2.119233256320000e-3 2.155458591210000e-3 2.192303147640000e-3 2.229777510340000e-3
2.267892444970000e-3 2.306658901220001e-3 2.346088015930000e-3 2.386191116330000e-3
2.426979723260000e-3 2.468465554500000e-3 2.510660528140000e-3 2.553576765950000e-3
2.597226596960000e-3 2.641622560910000e-3 2.686777411900000e-3 2.732704122060000e-3
2.779415885230000e-3 2.826926120790000e-3 2.875248477530000e-3 2.924396837520000e-3
2.974385320130000e-3 3.025228286080000e-3 3.076940341580000e-3 3.129536342500000e-3
3.183031398660000e-3 3.237440878130000e-3 3.292780411730000e-3 3.349065897420000e-3
3.406313504930000e-3 3.464539680400000e-3 3.523761151080000e-3 3.583994930150000e-3
3.645258321610001e-3 3.707568925240000e-3 3.770944641690000e-3 3.835403677560000e-3
3.900964550680000e-3 3.967646095440000e-3 4.035467468140000e-3 4.104448152550000e-3
4.174607965500000e-3 4.245967062529999e-3 4.318545943730000e-3 4.392365459620001e-3
4.467446817110000e-3 4.543811585619999e-3 4.621481703270000e-3 4.700479483180001e-3
4.780827619890000e-3 4.862549195870000e-3 4.945667688129999e-3 5.030206975020000e-3
5.116191343030000e-3 5.203645493820000e-3 5.292594551250001e-3 5.383064068690000e-3
5.475080036270001e-3 5.568668888390000e-3 5.663857511329999e-3 5.760673250929999e-3
5.859143920480001e-3 5.959297808699999e-3 6.061163687860001e-3 6.164770822059999e-3
6.270148975629999e-3 6.377328421660000e-3 6.486339950750000e-3 6.597214879780000e-3
6.709985060990000e-3 6.824682891060001e-3 6.941341320459999e-3 7.059993862900001e-3
7.180674604970000e-3 7.303418215890001e-3 7.428259957540000e-3 7.555235694539999e-3