<UPF version="2.0.1">
<PP_INFO>
Generated by new atomic code, or converted to UPF format
Author:
Generation date:
Pseudopotential type: US
Element: B
Functional:  SLA  PW   PBE  PBE
Suggested minimum cutoff for wavefunctions:   0. Ry
Suggested minimum cutoff for charge density:   0. Ry
The Pseudo was generated with a Non-Relativistic Calculation
L component and cutoff radius for Local Potential:  0   0.0000
Valence configuration:
nl pn  l   occ       Rcut    Rcut US       E pseu
2S  0  0  2.00     10.000      1.500     0.000000
2P  0  1  1.00     10.000      1.530     0.000000
Generation configuration: not available.
</PP_INFO>
<!--
END OF HUMAN READABLE SECTION
-->
<PP_HEADER generated="Generated by new atomic code, or converted to UPF format" author="" date="" comment="" element="B " pseudo_type="US" relativistic="no" is_ultrasoft="true" is_paw="false" is_coulomb="false" has_so="false" has_wfc="false" has_gipaw="false" paw_as_gipaw="false" core_correction="true" functional=" SLA  PW   PBE  PBE" z_valence="3.000000000000e0" total_psenergy="-5.688505874060e0" wfc_cutoff="0.000000000000e0" rho_cutoff="0.000000000000e0" l_max="1" l_max_rho="0" l_local="0" mesh_size="781" number_of_wfc="2" number_of_proj="4"/>
<PP_MESH mesh="781" rmax="8.068557632220e1" zmesh="5.000000000000e0">
<PP_R>
0.000000000000000e0 3.065077917280000e-6 6.181668546690000e-6 9.350637627900003e-6
1.257286545050000e-5 1.584924709840000e-5 1.918069269880000e-5 2.256812767460000e-5
2.601249300180000e-5 2.951474547060000e-5 3.307585795150001e-5 3.669681966540001e-5
4.037863645810000e-5 4.412233108020000e-5 4.792894347100001e-5 5.179953104730000e-5
5.573516899720000e-5 5.973695057880000e-5 6.380598742380000e-5 6.794340984630000e-5
7.215036715710000e-5 7.642802798229998e-5 8.077758058860002e-5 8.520023321300002e-5
8.969721439870000e-5 9.426977333589999e-5 9.891918020930001e-5 1.036467265510000e-4
1.084537255980000e-4 1.133415126590000e-4 1.183114454850000e-4 1.233649046430000e-4
1.285032939060000e-4 1.337280406360000e-4 1.390405961860000e-4 1.444424363000000e-4
1.499350615240000e-4 1.555199976220000e-4 1.611987960010000e-4 1.669730341410000e-4
1.728443160360000e-4 1.788142726340000e-4 1.848845622950000e-4 1.910568712490000e-4
1.973329140670000e-4 2.037144341350000e-4 2.102032041360000e-4 2.168010265510000e-4
2.235097341480000e-4 2.303311905020000e-4 2.372672905050000e-4 2.443199608970000e-4
2.514911607970000e-4 2.587828822520000e-4 2.661971507860000e-4 2.737360259680000e-4
2.814016019760000e-4 2.891960081870000e-4 2.971214097640000e-4 3.051800082590000e-4
3.133740422219999e-4 3.217057878279999e-4 3.301775595020000e-4 3.387917105710000e-4
3.475506339080000e-4 3.564567626050000e-4 3.655125706430000e-4 3.747205735830000e-4
3.840833292620000e-4 3.936034385070000e-4 4.032835458530000e-4 4.131263402810000e-4
4.231345559639999e-4 4.333109730270000e-4 4.436584183170000e-4 4.541797661910000e-4
4.648779393140000e-4 4.757559094680000e-4 4.868166983830000e-4 4.980633785710001e-4
5.094990741820000e-4 5.211269618720000e-4 5.329502716830000e-4 5.449722879459999e-4
5.571963501860001e-4 5.696258540540001e-4 5.822642522710000e-4 5.951150555840000e-4
6.081818337440001e-4 6.214682164939999e-4 6.349778945819999e-4 6.487146207840000e-4
6.626822109440001e-4 6.768845450400001e-4 6.913255682539999e-4 7.060092920759999e-4
7.209397954120000e-4 7.361212257189999e-4 7.515578001600000e-4 7.672538067710000e-4
7.832136056550000e-4 7.994416301919999e-4 8.159423882710001e-4 8.327204635419999e-4
8.497805166890000e-4 8.671272867250000e-4 8.847655923100001e-4 9.027003330860000e-4
9.209364910410001e-4 9.394791318920001e-4 9.583334064910000e-4 9.775045522580001e-4
9.969978946339999e-4 1.016818848560000e-3 1.036972919990000e-3 1.057465707400000e-3
1.078302903370000e-3 1.099490296140000e-3 1.121033771230000e-3 1.142939313080000e-3
1.165213006710000e-3 1.187861039380000e-3 1.210889702380000e-3 1.234305392700000e-3
1.258114614840000e-3 1.282323982640000e-3 1.306940221070000e-3 1.331970168140000e-3
1.357420776770000e-3 1.383299116730000e-3 1.409612376630000e-3 1.436367865870000e-3
1.463573016690000e-3 1.491235386270000e-3 1.519362658780000e-3 1.547962647510000e-3
1.577043297110000e-3 1.606612685710000e-3 1.636679027230000e-3 1.667250673610000e-3
1.698336117190000e-3 1.729943993000000e-3 1.762083081210000e-3 1.794762309560000e-3
1.827990755820000e-3 1.861777650320000e-3 1.896132378530000e-3 1.931064483660000e-3
1.966583669290000e-3 2.002699802080000e-3 2.039422914540000e-3 2.076763207750000e-3
2.114731054270000e-3 2.153337000970000e-3 2.192591771960000e-3 2.232506271600000e-3
2.273091587500000e-3 2.314358993640000e-3 2.356319953430000e-3 2.398986122990000e-3
2.442369354280000e-3 2.486481698490000e-3 2.531335409330000e-3 2.576942946450000e-3
2.623316978919999e-3 2.670470388690000e-3 2.718416274250000e-3 2.767167954190000e-3
2.816738970980000e-3 2.867143094659999e-3 2.918394326690000e-3 2.970506903860000e-3
3.023495302220000e-3 3.077374241110000e-3 3.132158687240000e-3 3.187863858880000e-3
3.244505230030001e-3 3.302098534789999e-3 3.360659771650000e-3 3.420205208000000e-3
3.480751384640000e-3 3.542315120320000e-3 3.604913516480001e-3 3.668563961970000e-3
3.733284137870000e-3 3.799092022439999e-3 3.866005896050000e-3 3.934044346330000e-3
4.003226273290000e-3 4.073570894560000e-3 4.145097750790000e-3 4.217826710990000e-3
4.291777978119999e-3 4.366972094680000e-3 4.443429948410000e-3 4.521172778090000e-3
4.600222179450000e-3 4.680600111170000e-3 4.762328900960000e-3 4.845431251790000e-3
4.929930248190000e-3 5.015849362640000e-3 5.103212462109999e-3 5.192043814699999e-3
5.282368096350000e-3 5.374210397710001e-3 5.467596231140001e-3 5.562551537740000e-3
5.659102694590000e-3 5.757276522080001e-3 5.857100291350000e-3 5.958601731870000e-3
6.061809039139999e-3 6.166750882500000e-3 6.273456413160000e-3 6.381955272219999e-3
6.492277598950000e-3 6.604454039160000e-3 6.718515753680000e-3 6.834494427060001e-3
6.952422276340000e-3 7.072332060020001e-3 7.194257087140000e-3 7.318231226540001e-3
7.444288916300001e-3 7.572465173230000e-3 7.702795602689999e-3 7.835316408400001e-3
7.970064402560000e-3 8.107077016030001e-3 8.246392308740001e-3 8.388048980300001e-3
8.532086380670002e-3 8.678544521190002e-3 8.827464085599999e-3 8.978886441409999e-3
9.132853651369999e-3 9.289408485119999e-3 9.448594431129999e-3 9.610455708740000e-3
9.775037280459999e-3 9.942384864449998e-3 1.011254494720000e-2 1.028556479660000e-2
1.046149247470000e-2 1.064037685150000e-2 1.082226761820000e-2 1.100721530120000e-2
1.119527127610000e-2 1.138648778190000e-2 1.158091793540000e-2 1.177861574630000e-2
1.197963613190000e-2 1.218403493260000e-2 1.239186892700000e-2 1.260319584820000e-2
1.281807439950000e-2 1.303656427070000e-2 1.325872615480000e-2 1.348462176500000e-2
1.371431385140000e-2 1.394786621900000e-2 1.418534374480000e-2 1.442681239630000e-2
1.467233924980000e-2 1.492199250860000e-2 1.517584152270000e-2 1.543395680710000e-2
1.569641006230000e-2 1.596327419360000e-2 1.623462333170000e-2 1.651053285300000e-2
1.679107940090000e-2 1.707634090680000e-2 1.736639661170000e-2 1.766132708870000e-2
1.796121426480000e-2 1.826614144380000e-2 1.857619332970000e-2 1.889145605000000e-2
1.921201717980000e-2 1.953796576580000e-2 1.986939235140000e-2 2.020638900180000e-2
2.054904932920000e-2 2.089746851930000e-2 2.125174335740000e-2 2.161197225540000e-2
2.197825527940000e-2 2.235069417680000e-2 2.272939240540000e-2 2.311445516160000e-2
2.350598940960000e-2 2.390410391160000e-2 2.430890925750000e-2 2.472051789570000e-2
2.513904416470000e-2 2.556460432440000e-2 2.599731658880000e-2 2.643730115850000e-2
2.688468025420000e-2 2.733957815080000e-2 2.780212121180000e-2 2.827243792420000e-2
2.875065893470000e-2 2.923691708550000e-2 2.973134745140000e-2 3.023408737740000e-2
3.074527651670000e-2 3.126505686960001e-2 3.179357282280000e-2 3.233097118980000e-2
3.287740125120000e-2 3.343301479680000e-2 3.399796616720000e-2 3.457241229700000e-2
3.515651275820000e-2 3.575042980480000e-2 3.635432841740000e-2 3.696837634970001e-2
3.759274417440000e-2 3.822760533100000e-2 3.887313617400000e-2 3.952951602160000e-2
4.019692720580000e-2 4.087555512290000e-2 4.156558828490001e-2 4.226721837220000e-2
4.298064028660001e-2 4.370605220540000e-2 4.444365563660000e-2 4.519365547470001e-2
4.595626005790000e-2 4.673168122560000e-2 4.752013437770001e-2 4.832183853400000e-2
4.913701639520001e-2 4.996589440490000e-2 5.080870281220000e-2 5.166567573610000e-2
5.253705123000000e-2 5.342307134840000e-2 5.432398221370001e-2 5.524003408460000e-2
5.617148142590000e-2 5.711858297890000e-2 5.808160183359999e-2 5.906080550130000e-2
6.005646598930000e-2 6.106885987650000e-2 6.209826838980001e-2 6.314497748269999e-2
6.420927791440000e-2 6.529146533080000e-2 6.639184034650000e-2 6.751070862819999e-2
6.864838098000002e-2 6.980517342910000e-2 7.098140731440000e-2 7.217740937490000e-2
7.339351184120000e-2 7.463005252729999e-2 7.588737492470000e-2 7.716582829780000e-2
7.846576778059999e-2 7.978755447590000e-2 8.113155555500001e-2 8.249814436030000e-2
8.388770050860000e-2 8.530060999660000e-2 8.673726530830001e-2 8.819806552379999e-2
8.968341643030000e-2 9.119373063489999e-2 9.272942767909999e-2 9.429093415510000e-2
9.587868382480000e-2 9.749311774010000e-2 9.913468436520001e-2 1.008038397010000e-1
1.025010474130000e-1 1.042267789590000e-1 1.059815137190000e-1 1.077657391320000e-1
1.095799508260000e-1 1.114246527610000e-1 1.133003573660000e-1 1.152075856830000e-1
1.171468675090000e-1 1.191187415460000e-1 1.211237555490000e-1 1.231624664810000e-1
1.252354406620000e-1 1.273432539310000e-1 1.294864918070000e-1 1.316657496470000e-1
1.338816328140000e-1 1.361347568460000e-1 1.384257476240000e-1 1.407552415510000e-1
1.431238857220000e-1 1.455323381090000e-1 1.479812677430000e-1 1.504713548980000e-1
1.530032912800000e-1 1.555777802210000e-1 1.581955368740000e-1 1.608572884110000e-1
1.635637742220000e-1 1.663157461290000e-1 1.691139685850000e-1 1.719592188920000e-1
1.748522874150000e-1 1.777939778040000e-1 1.807851072140000e-1 1.838265065330000e-1
1.869190206130000e-1 1.900635085070000e-1 1.932608437030000e-1 1.965119143710000e-1
1.998176236070000e-1 2.031788896840000e-1 2.065966463100000e-1 2.100718428820000e-1
2.136054447560000e-1 2.171984335110000e-1 2.208518072220000e-1 2.245665807390000e-1
2.283437859660000e-1 2.321844721530000e-1 2.360897061800000e-1 2.400605728610000e-1
2.440981752390000e-1 2.482036348970000e-1 2.523780922660000e-1 2.566227069440000e-1
2.609386580200000e-1 2.653271443950000e-1 2.697893851220000e-1 2.743266197410000e-1
2.789401086240000e-1 2.836311333260000e-1 2.884009969380000e-1 2.932510244540000e-1
2.981825631350000e-1 3.031969828850000e-1 3.082956766290000e-1 3.134800607050000e-1
3.187515752530000e-1 3.241116846150000e-1 3.295618777470000e-1 3.351036686250000e-1
3.407385966710000e-1 3.464682271800000e-1 3.522941517530000e-1 3.582179887380000e-1
3.642413836850000e-1 3.703660097970000e-1 3.765935684000000e-1 3.829257894100000e-1
3.893644318180000e-1 3.959112841780000e-1 4.025681651010000e-1 4.093369237650000e-1
4.162194404230000e-1 4.232176269290000e-1 4.303334272710000e-1 4.375688181040000e-1
4.449258093050000e-1 4.524064445320001e-1 4.600128017849999e-1 4.677469939920000e-1
4.756111695880000e-1 4.836075131179999e-1 4.917382458380001e-1 5.000056263390000e-1
5.084119511680000e-1 5.169595554700001e-1 5.256508136340000e-1 5.344881399530000e-1
5.434739892990001e-1 5.526108577970001e-1 5.619012835260000e-1 5.713478472200000e-1
5.809531729830000e-1 5.907199290250000e-1 6.006508283960001e-1 6.107486297430000e-1
6.210161380750000e-1 6.314562055450001e-1 6.420717322380000e-1 6.528656669789999e-1
6.638410081540000e-1 6.750008045390000e-1 6.863481561490000e-1 6.978862150990000e-1
7.096181864800000e-1 7.215473292480000e-1 7.336769571310001e-1 7.460104395469999e-1
7.585512025440000e-1 7.713027297460000e-1 7.842685633280000e-1 7.974523049930000e-1
8.108576169759999e-1 8.244882230609999e-1 8.383479096150001e-1 8.524405266410000e-1
8.667699888440000e-1 8.813402767230000e-1 8.961554376750001e-1 9.112195871150000e-1
9.265369096290000e-1 9.421116601250000e-1 9.579481650240000e-1 9.740508234560000e-1
9.904241084860001e-1 1.007072568350000e0 1.024000827740000e0 1.041213589040000e0
1.058715633700000e0 1.076511823500000e0 1.094607101950000e0 1.113006495630000e0
1.131715115590000e0 1.150738158810000e0 1.170080909570000e0 1.189748740990000e0
1.209747116490000e0 1.230081591290000e0 1.250757813990000e0 1.271781528130000e0
1.293158573750000e0 1.314894889060000e0 1.336996512060000e0 1.359469582250000e0
1.382320342270000e0 1.405555139720000e0 1.429180428860000e0 1.453202772400000e0
1.477628843390000e0 1.502465427000000e0 1.527719422440000e0 1.553397844870000e0
1.579507827350000e0 1.606056622820000e0 1.633051606120000e0 1.660500276030000e0
1.688410257350000e0 1.716789303040000e0 1.745645296350000e0 1.774986253020000e0
1.804820323490000e0 1.835155795220000e0 1.866001094900000e0 1.897364790880000e0
1.929255595500000e0 1.961682367510000e0 1.994654114570000e0 2.028179995700000e0
2.062269323870000e0 2.096931568550000e0 2.132176358370000e0 2.168013483770000e0
2.204452899740000e0 2.241504728570000e0 2.279179262680000e0 2.317486967450000e0
2.356438484170000e0 2.396044632950000e0 2.436316415750000e0 2.477265019430000e0
2.518901818880000e0 2.561238380140000e0 2.604286463630000e0 2.648058027440000e0
2.692565230610000e0 2.737820436540000e0 2.783836216410000e0 2.830625352680000e0
2.878200842640000e0 2.926575901990000e0 2.975763968580000e0 3.025778706070000e0
3.076634007750000e0 3.128344000440000e0 3.180923048360000e0 3.234385757120000e0
3.288746977830000e0 3.344021811170000e0 3.400225611630000e0 3.457373991720000e0
3.515482826370000e0 3.574568257300000e0 3.634646697500000e0 3.695734835810000e0
3.757849641560000e0 3.821008369250000e0 3.885228563390000e0 3.950528063330000e0
4.016925008240000e0 4.084437842150000e0 4.153085319040000e0 4.222886508120000e0
4.293860799030000e0 4.366027907330000e0 4.439407879900000e0 4.514021100520000e0
4.589888295590000e0 4.667030539800000e0 4.745469262050000e0 4.825226251380000e0
4.906323663030000e0 4.988784024570000e0 5.072630242190000e0 5.157885607050000e0
5.244573801730000e0 5.332718906850000e0 5.422345407740000e0 5.513478201210000e0
5.606142602510000e0 5.700364352360000e0 5.796169624070000e0 5.893585030820000e0
5.992637633090000e0 6.093354946110000e0 6.195764947570000e0 6.299896085360000e0
6.405777285440000e0 6.513437959960000e0 6.622908015350000e0 6.734217860650000e0
6.847398415980000e0 6.962481121130000e0 7.079497944230000e0 7.198481390730000e0
7.319464512340000e0 7.442480916270000e0 7.567564774520000e0 7.694750833410000e0
7.824074423240000e0 7.955571468040000e0 8.089278495620000e0 8.225232647680000e0
8.363471690140001e0 8.504034023619999e0 8.646958694109999e0 8.792285403839999e0
8.940054522270000e0 9.090307097320000e0 9.243084866789999e0 9.398430269920000e0
9.556386459230000e0 9.716997312440000e0 9.880307444710001e0 1.004636222100000e1
1.021520776880000e1 1.038689099060000e1 1.056145957730000e1 1.073896202140000e1
1.091944763020000e1 1.110296653980000e1 1.128956972880000e1 1.147930903270000e1
1.167223715800000e1 1.186840769710000e1 1.206787514310000e1 1.227069490490000e1
1.247692332260000e1 1.268661768320000e1 1.289983623660000e1 1.311663821140000e1
1.333708383180000e1 1.356123433410000e1 1.378915198390000e1 1.402090009290000e1
1.425654303730000e1 1.449614627480000e1 1.473977636350000e1 1.498750098000000e1
1.523938893820000e1 1.549551020870000e1 1.575593593780000e1 1.602073846780000e1
1.628999135660000e1 1.656376939840000e1 1.684214864440000e1 1.712520642400000e1
1.741302136620000e1 1.770567342140000e1 1.800324388370000e1 1.830581541350000e1
1.861347206040000e1 1.892629928660000e1 1.924438399050000e1 1.956781453100000e1
1.989668075200000e1 2.023107400740000e1 2.057108718630000e1 2.091681473900000e1
2.126835270320000e1 2.162579873060000e1 2.198925211400000e1 2.235881381510000e1
2.273458649220000e1 2.311667452900000e1 2.350518406370000e1 2.390022301790000e1
2.430190112740000e1 2.471032997180000e1 2.512562300630000e1 2.554789559280000e1
2.597726503190000e1 2.641385059560000e1 2.685777356060000e1 2.730915724160000e1
2.776812702580000e1 2.823481040790000e1 2.870933702510000e1 2.919183869340000e1
2.968244944410000e1 3.018130556120000e1 3.068854561910000e1 3.120431052090000e1
3.172874353810000e1 3.226199034980000e1 3.280419908360000e1 3.335552035650000e1
3.391610731690001e1 3.448611568700001e1 3.506570380600000e1 3.565503267450000e1
3.625426599860000e1 3.686357023600000e1 3.748311464170000e1 3.811307131530000e1
3.875361524900000e1 3.940492437560000e1 4.006717961860001e1 4.074056494200000e1
4.142526740160000e1 4.212147719690001e1 4.282938772410001e1 4.354919562960000e1
4.428110086440000e1 4.502530674050000e1 4.578201998640000e1 4.655145080510001e1
4.733381293240000e1 4.812932369610000e1 4.893820407650001e1 4.976067876770000e1
5.059697624040000e1 5.144732880480000e1 5.231197267520001e1 5.319114803620000e1
5.408509910880000e1 5.499407421850001e1 5.591832586420001e1 5.685811078840000e1
5.781369004850000e1 5.878532908940000e1 5.977329781700000e1 6.077787067350000e1
6.179932671330000e1 6.283794968070000e1 6.389402808900001e1 6.496785529979999e1
6.605972960550000e1 6.716995431160000e1 6.829883782090000e1 6.944669371940001e1
7.061384086330000e1 7.180060346780000e1 7.300731119670001e1 7.423429925430000e1
7.548190847870001e1 7.675048543580001e1 7.804038251640001e1 7.935195803360000e1
8.068557632220001e1
</PP_R>
<PP_RAB>
3.039606551850000e-6 3.090691183800000e-6 3.142634360960001e-6 3.195450512310000e-6
3.249154309360000e-6 3.303760670160000e-6 3.359284763499999e-6 3.415742013090000e-6
3.473148101880001e-6 3.531518976360000e-6 3.590870851040000e-6 3.651220212940001e-6
3.712583826150000e-6 3.774978736520000e-6 3.838422276370000e-6 3.902932069300000e-6
3.968526035140001e-6 4.035222394830001e-6 4.103039675579999e-6 4.171996715950001e-6
4.242112671129999e-6 4.313407018220000e-6 4.385899561660001e-6 4.459610438730000e-6
4.534560125160001e-6 4.610769440780000e-6 4.688259555340000e-6 4.767051994359999e-6
4.847168645149999e-6 4.928631762830000e-6 5.011463976590001e-6 5.095688295900000e-6
5.181328116950001e-6 5.268407229120000e-6 5.356949821620001e-6 5.446980490190000e-6
5.538524243910001e-6 5.631606512210000e-6 5.726253151860000e-6 5.822490454200000e-6
5.920345152450000e-6 6.019844429080000e-6 6.121015923430000e-6 6.223887739340000e-6
6.328488452970000e-6 6.434847120760000e-6 6.542993287459998e-6 6.652956994360000e-6
6.764768787650000e-6 6.878459726880002e-6 6.994061393599998e-6 7.111605900130000e-6
7.231125898459999e-6 7.352654589370000e-6 7.476225731620001e-6 7.601873651309999e-6
7.729633251450001e-6 7.859540021630000e-6 7.991630047920001e-6 8.125940022830001e-6
8.262507255550000e-6 8.401369682310001e-6 8.542565876889999e-6 8.686135061360002e-6
8.832117116979997e-6 8.980552595259999e-6 9.131482729229999e-6 9.284949444890000e-6
9.440995372880000e-6 9.599663860289999e-6 9.760998982730001e-6 9.925045556530002e-6
1.009184915130000e-5 1.026145610230000e-5 1.043391352380000e-5 1.060926932170000e-5
1.078757220710000e-5 1.096887170970000e-5 1.115321819160000e-5 1.134066286140000e-5
1.153125778820000e-5 1.172505591640000e-5 1.192211107990000e-5 1.212247801760000e-5
1.232621238830000e-5 1.253337078610000e-5 1.274401075640000e-5 1.295819081160000e-5
1.317597044760000e-5 1.339741016010000e-5 1.362257146150000e-5 1.385151689820000e-5
1.408431006760000e-5 1.432101563580000e-5 1.456169935610000e-5 1.480642808640000e-5
1.505526980870000e-5 1.530829364720000e-5 1.556556988790000e-5 1.582716999800000e-5
1.609316664610000e-5 1.636363372170000e-5 1.663864635640000e-5 1.691828094420000e-5
1.720261516330000e-5 1.749172799730000e-5 1.778569975700000e-5 1.808461210330000e-5
1.838854806920000e-5 1.869759208340000e-5 1.901182999340000e-5 1.933134908950000e-5
1.965623812910000e-5 1.998658736120000e-5 2.032248855170001e-5 2.066403500860000e-5
2.101132160810000e-5 2.136444482090000e-5 2.172350273900000e-5 2.208859510320000e-5
2.245982333030000e-5 2.283729054160000e-5 2.322110159160000e-5 2.361136309680000e-5
2.400818346590000e-5 2.441167292920000e-5 2.482194356970000e-5 2.523910935420000e-5
2.566328616470000e-5 2.609459183080000e-5 2.653314616240000e-5 2.697907098290000e-5
2.743249016340000e-5 2.789352965640000e-5 2.836231753140000e-5 2.883898401040000e-5
2.932366150370000e-5 2.981648464710000e-5 3.031759033900000e-5 3.082711777870000e-5
3.134520850500000e-5 3.187200643510000e-5 3.240765790540001e-5 3.295231171120000e-5
3.350611914880000e-5 3.406923405720000e-5 3.464181286070000e-5 3.522401461280000e-5
3.581600104000000e-5 3.641793658650000e-5 3.702998846080000e-5 3.765232668110000e-5
3.828512412310000e-5 3.892855656799999e-5 3.958280275109999e-5 4.024804441180001e-5
4.092446634360000e-5 4.161225644579999e-5 4.231160577580000e-5 4.302270860160000e-5
4.374576245649999e-5 4.448096819330000e-5 4.522853004070000e-5 4.598865565940000e-5
4.676155620049999e-5 4.754744636330000e-5 4.834654445590000e-5 4.915907245510000e-5
4.998525606830000e-5 5.082532479620001e-5 5.167951199670000e-5 5.254805494950000e-5
5.343119492220001e-5 5.432917723689999e-5 5.524225133920001e-5 5.617067086650000e-5
5.711469371910001e-5 5.807458213159999e-5 5.905060274599999e-5 6.004302668529999e-5
6.105212962910000e-5 6.207819189039999e-5 6.312149849310000e-5 6.418233925130000e-5
6.526100884970000e-5 6.635780692580000e-5 6.747303815270000e-5 6.860701232400000e-5
6.976004444000000e-5 7.093245479460000e-5 7.212456906500000e-5 7.333671840160000e-5
7.456923952060000e-5 7.582247479660000e-5 7.709677235870000e-5 7.839248618669998e-5
7.970997620940000e-5 8.104960840460000e-5 8.241175490109999e-5 8.379679408169999e-5
8.520511068839999e-5 8.663709592920000e-5 8.809314758709998e-5 8.957367013020001e-5
9.107907482430001e-5 9.260977984709999e-5 9.416621040419999e-5 9.574879884749999e-5
9.735798479500001e-5 9.899421525320001e-5 1.006579447410000e-4 1.023496354160000e-4
1.040697572040000e-4 1.058187879270000e-4 1.075972134380000e-4 1.094055277560000e-4
1.112442332010000e-4 1.131138405380000e-4 1.150148691130000e-4 1.169478470030000e-4
1.189133111580000e-4 1.209118075520000e-4 1.229438913370000e-4 1.250101269940000e-4
1.271110884900000e-4 1.292473594390000e-4 1.314195332630000e-4 1.336282133590000e-4
1.358740132610000e-4 1.381575568190000e-4 1.404794783640000e-4 1.428404228900000e-4
1.452410462300000e-4 1.476820152380000e-4 1.501640079790000e-4 1.526877139090000e-4
1.552538340750000e-4 1.578630813040000e-4 1.605161804040000e-4 1.632138683640000e-4
1.659568945600000e-4 1.687460209590000e-4 1.715820223390000e-4 1.744656864950000e-4
1.773978144630000e-4 1.803792207430000e-4 1.834107335210000e-4 1.864931949050000e-4
1.896274611540000e-4 1.928144029160000e-4 1.960549054750000e-4 1.993498689900000e-4
2.027002087510000e-4 2.061068554280000e-4 2.095707553360000e-4 2.130928706890000e-4
2.166741798770000e-4 2.203156777300000e-4 2.240183757990000e-4 2.277833026350000e-4
2.316115040760000e-4 2.355040435350000e-4 2.394620022980000e-4 2.434864798230000e-4
2.475785940480000e-4 2.517394816960000e-4 2.559702985970000e-4 2.602722200040000e-4
2.646464409240000e-4 2.690941764450000e-4 2.736166620800000e-4 2.782151541020000e-4
2.828909299000000e-4 2.876452883309999e-4 2.924795500810000e-4 2.973950580309999e-4
3.023931776310000e-4 3.074752972810000e-4 3.126428287130000e-4 3.178972073850000e-4
3.232398928809999e-4 3.286723693150000e-4 3.341961457430001e-4 3.398127565820000e-4
3.455237620380000e-4 3.513307485399999e-4 3.572353291740000e-4 3.632391441420000e-4
3.693438612080000e-4 3.755511761650000e-4 3.818628133090001e-4 3.882805259120000e-4
3.948060967130001e-4 4.014413384130000e-4 4.081880941770000e-4 4.150482381470000e-4
4.220236759640000e-4 4.291163452929999e-4 4.363282163659999e-4 4.436612925270000e-4
4.511176107890000e-4 4.586992423990000e-4 4.664082934140001e-4 4.742469052880000e-4
4.822172554630000e-4 4.903215579769999e-4 4.985620640750000e-4 5.069410628420000e-4
5.154608818310001e-4 5.241238877120001e-4 5.329324869320001e-4 5.418891263810001e-4
5.509962940720001e-4 5.602565198320000e-4 5.696723760050000e-4 5.792464781680001e-4
5.889814858550001e-4 5.988801032980000e-4 6.089450801760000e-4 6.191792123799999e-4
6.295853427919999e-4 6.401663620690000e-4 6.509252094520001e-4 6.618648735790000e-4
6.729883933159999e-4 6.842988586000000e-4 6.957994113000000e-4 7.074932460890000e-4
7.193836113290000e-4 7.314738099750000e-4 7.437672004950001e-4 7.562671977970002e-4
7.689772741829999e-4 7.819009603130000e-4 7.950418461809999e-4 8.084035821190000e-4
8.219898798049998e-4 8.358045133000001e-4 8.498513200880000e-4 8.641342021529999e-4
8.786571270520000e-4 8.934241290260001e-4 9.084393101130001e-4 9.237068412950000e-4
9.392309636500000e-4 9.550159895340000e-4 9.710663037779998e-4 9.873863649059999e-4
1.003980706370000e-3 1.020853937830000e-3 1.038010746380000e-3 1.055455897930000e-3
1.073194238460000e-3 1.091230695400000e-3 1.109570278990000e-3 1.128218083690000e-3
1.147179289550000e-3 1.166459163700000e-3 1.186063061790000e-3 1.205996429470000e-3
1.226264803900000e-3 1.246873815340000e-3 1.267829188630000e-3 1.289136744850000e-3
1.310802402900000e-3 1.332832181150000e-3 1.355232199140000e-3 1.378008679220000e-3
1.401167948360000e-3 1.424716439830000e-3 1.448660695020000e-3 1.473007365280000e-3
1.497763213720000e-3 1.522935117130000e-3 1.548530067870000e-3 1.574555175800000e-3
1.601017670300000e-3 1.627924902220000e-3 1.655284345970000e-3 1.683103601570000e-3
1.711390396780000e-3 1.740152589200000e-3 1.769398168540000e-3 1.799135258750000e-3
1.829372120310000e-3 1.860117152570000e-3 1.891378895990000e-3 1.923166034600000e-3
1.955487398370000e-3 1.988351965650000e-3 2.021768865710000e-3 2.055747381230000e-3
2.090296950910000e-3 2.125427172070000e-3 2.161147803340000e-3 2.197468767330000e-3
2.234400153450000e-3 2.271952220650000e-3 2.310135400290000e-3 2.348960299060000e-3
2.388437701910000e-3 2.428578575040000e-3 2.469394068940000e-3 2.510895521520000e-3
2.553094461220000e-3 2.596002610240000e-3 2.639631887790000e-3 2.683994413390000e-3
2.729102510260000e-3 2.774968708710000e-3 2.821605749640000e-3 2.869026588080000e-3
2.917244396810000e-3 2.966272569960000e-3 3.016124726790000e-3 3.066814715430000e-3
3.118356616770001e-3 3.170764748340000e-3 3.224053668270000e-3 3.278238179410000e-3
3.333333333330000e-3 3.389354434620000e-3 3.446317045050000e-3 3.504236987920000e-3
3.563130352490000e-3 3.623013498400001e-3 3.683903060250000e-3 3.745815952190000e-3
3.808769372650000e-3 3.872780809089999e-3 3.937868042890000e-3 4.004049154230000e-3
4.071342527200001e-3 4.139766854830000e-3 4.209341144310000e-3 4.280084722290001e-3
4.352017240219999e-3 4.425158679800000e-3 4.499529358589999e-3 4.575149935570000e-3
4.652041416949999e-3 4.730225161980000e-3 4.809722888850000e-3 4.890556680789999e-3
4.972748992140001e-3 5.056322654629999e-3 5.141300883700000e-3 5.227707284970000e-3
5.315565860760000e-3 5.404901016809999e-3 5.495737569000001e-3 5.588100750300001e-3
5.682016217740000e-3 5.777510059559999e-3 5.874608802430000e-3 5.973339418850000e-3
6.073729334640000e-3 6.175806436509999e-3 6.279599079880000e-3 6.385136096709999e-3
6.492446803520001e-3 6.601561009510000e-3 6.712509024899999e-3 6.825321669289998e-3
6.940030280260000e-3 7.056666722040000e-3 7.175263394400000e-3 7.295853241610000e-3
7.418469761640000e-3 7.543147015420000e-3 7.669919636310000e-3 7.798822839749999e-3
7.929892433020001e-3 8.063164825179999e-3 8.198677037190000e-3 8.336466712210001e-3
8.476572126030002e-3 8.619032197719999e-3 8.763886500440000e-3 8.911175272440000e-3
9.060939428199999e-3 9.213220569839999e-3 9.368060998659999e-3 9.525503726880000e-3
9.685592489610000e-3 9.848371756970000e-3 1.001388674650000e-2 1.018218343560000e-2
1.035330857450000e-2 1.052730969900000e-2 1.070423514380000e-2 1.088413405620000e-2
1.106705640910000e-2 1.125305301550000e-2 1.144217554240000e-2 1.163447652490000e-2
1.183000938120000e-2 1.202882842740000e-2 1.223098889210000e-2 1.243654693230000e-2
1.264555964890000e-2 1.285808510230000e-2 1.307418232870000e-2 1.329391135640000e-2
1.351733322280000e-2 1.374450999090000e-2 1.397550476680000e-2 1.421038171720000e-2
1.444920608730000e-2 1.469204421860000e-2 1.493896356780000e-2 1.519003272510000e-2
1.544532143370000e-2 1.570490060860000e-2 1.596884235690000e-2 1.623721999750000e-2
1.651010808130000e-2 1.678758241240000e-2 1.706972006890000e-2 1.735659942390000e-2
1.764830016820000e-2 1.794490333160000e-2 1.824649130580000e-2 1.855314786700000e-2
1.886495819980000e-2 1.918200892000000e-2 1.950438809940000e-2 1.983218528980000e-2
2.016549154800000e-2 2.050439946140000e-2 2.084900317310000e-2 2.119939840870000e-2
2.155568250230000e-2 2.191795442420000e-2 2.228631480760000e-2 2.266086597730000e-2
2.304171197780000e-2 2.342895860200000e-2 2.382271342080000e-2 2.422308581330000e-2
2.463018699640000e-2 2.504413005660000e-2 2.546502998050000e-2 2.589300368770000e-2
2.632817006240000e-2 2.677064998690000e-2 2.722056637520000e-2 2.767804420700000e-2
2.814321056240000e-2 2.861619465730000e-2 2.909712787910000e-2 2.958614382350000e-2
3.008337833140000e-2 3.058896952680001e-2 3.110305785490000e-2 3.162578612119999e-2
3.215729953149999e-2 3.269774573170000e-2 3.324727484940000e-2 3.380603953490000e-2
3.437419500440000e-2 3.495189908240000e-2 3.553931224600000e-2 3.613659766930000e-2
3.674392126880000e-2 3.736145174930000e-2 3.798936065110000e-2 3.862782239740000e-2
3.927701434270000e-2 3.993711682240000e-2 4.060831320230001e-2 4.129078993050000e-2
4.198473658790000e-2 4.269034594220001e-2 4.340781400040000e-2 4.413734006389999e-2
4.487912678330000e-2 4.563338021550000e-2 4.640030988010000e-2 4.718012881790000e-2
4.797305365050001e-2 4.877930463980000e-2 4.959910574959999e-2 5.043268470770000e-2
5.128027306910000e-2 5.214210628060000e-2 5.301842374580001e-2 5.390946889179999e-2
5.481548923699999e-2 5.573673645940000e-2 5.667346646700000e-2 5.762593946859999e-2
5.859442004610001e-2 5.957917722820000e-2 6.058048456480001e-2 6.159862020340000e-2