<UPF version="2.0.1">
<PP_INFO>
Generated by new atomic code, or converted to UPF format
Author:
Generation date:
Pseudopotential type: US
Element: P
Functional:  SLA  PW   PBE  PBE
Suggested minimum cutoff for wavefunctions:   0. Ry
Suggested minimum cutoff for charge density:   0. Ry
The Pseudo was generated with a Non-Relativistic Calculation
L component and cutoff radius for Local Potential:  0   0.0000
Valence configuration:
nl pn  l   occ       Rcut    Rcut US       E pseu
3S  0  0  2.00     10.000      1.700     0.000000
3P  0  1  3.00     10.000      1.700     0.000000
Generation configuration: not available.
</PP_INFO>
<!--
END OF HUMAN READABLE SECTION
-->
<PP_HEADER generated="Generated by new atomic code, or converted to UPF format" author="" date="" comment="" element="P " pseudo_type="US" relativistic="no" is_ultrasoft="true" is_paw="false" is_coulomb="false" has_so="false" has_wfc="false" has_gipaw="false" paw_as_gipaw="false" core_correction="true" functional=" SLA  PW   PBE  PBE" z_valence="5.000000000000e0" total_psenergy="-1.752409763433e1" wfc_cutoff="0.000000000000e0" rho_cutoff="0.000000000000e0" l_max="2" l_max_rho="0" l_local="0" mesh_size="903" number_of_wfc="2" number_of_proj="5"/>
<PP_MESH mesh="903" rmax="2.054664656340e2" zmesh="1.500000000000e1">
<PP_R>
0.000000000000000e0 1.021692639090000e-6 2.060556182230000e-6 3.116879209300000e-6
4.190955150160000e-6 5.283082366140000e-6 6.393564232929999e-6 7.522709224870000e-6
8.670831000590001e-6 9.838248490209999e-6 1.102528598380000e-5 1.223227322180000e-5
1.345954548600000e-5 1.470744369340000e-5 1.597631449030000e-5 1.726651034910000e-5
1.857838966570000e-5 1.991231685960000e-5 2.126866247460000e-5 2.264780328210000e-5
2.405012238570000e-5 2.547600932740000e-5 2.692586019620000e-5 2.840007773770000e-5
2.989907146620000e-5 3.142325777860000e-5 3.297306006980000e-5 3.454890885020001e-5
3.615124186590001e-5 3.778050421970000e-5 3.943714849490000e-5 4.112163488109999e-5
4.283443130200000e-5 4.457601354540000e-5 4.634686539550001e-5 4.814747876680000e-5
4.997835384130001e-5 5.183999920720001e-5 5.373293200020001e-5 5.565767804710000e-5
5.761477201200000e-5 5.960475754460001e-5 6.162818743160000e-5 6.368562374980002e-5
6.577763802250001e-5 6.790481137820001e-5 7.006773471210002e-5 7.226700885019999e-5
7.450324471610001e-5 7.677706350070002e-5 7.908909683510002e-5 8.143998696550000e-5
8.383038693220000e-5 8.626096075049999e-5 8.873238359540000e-5 9.124534198919999e-5
9.380053399190000e-5 9.639866939569998e-5 9.904046992150001e-5 1.017266694200000e-4
1.044580140740000e-4 1.072352626090000e-4 1.100591865010000e-4 1.129305701900000e-4
1.158502113030000e-4 1.188189208680000e-4 1.218375235480000e-4 1.249068578610000e-4
1.280277764210000e-4 1.312011461690000e-4 1.344278486180000e-4 1.377087800940000e-4
1.410448519880000e-4 1.444369910090000e-4 1.478861394390000e-4 1.513932553970000e-4
1.549593131050000e-4 1.585853031560000e-4 1.622722327940000e-4 1.660211261900000e-4
1.698330247270000e-4 1.737089872910000e-4 1.776500905610000e-4 1.816574293150000e-4
1.857321167290000e-4 1.898752846850000e-4 1.940880840900000e-4 1.983716851950000e-4
2.027272779150000e-4 2.071560721650000e-4 2.116592981940000e-4 2.162382069280000e-4
2.208940703150000e-4 2.256281816800000e-4 2.304418560850000e-4 2.353364306920000e-4
2.403132651370000e-4 2.453737419060000e-4 2.505192667200000e-4 2.557512689240000e-4
2.610712018850000e-4 2.664805433970000e-4 2.719807960900000e-4 2.775734878470000e-4
2.832601722300000e-4 2.890424289080000e-4 2.949218641030000e-4 3.009001110290000e-4
3.069788303470000e-4 3.131597106310000e-4 3.194444688300000e-4 3.258348507530000e-4
3.323326315450000e-4 3.389396161880000e-4 3.456576399969999e-4 3.524885691350000e-4
3.594343011240000e-4 3.664967653800000e-4 3.736779237440000e-4 3.809797710270000e-4
3.884043355690001e-4 3.959536797950000e-4 4.036299007940000e-4 4.114351309000001e-4
4.193715382810000e-4 4.274413275470001e-4 4.356467403580000e-4 4.439900560470001e-4
4.524735922560000e-4 4.610997055780000e-4 4.698707922100001e-4 4.787892886220001e-4
4.878576722309999e-4 4.970784620909999e-4 5.064542195920000e-4 5.159875491710000e-4
5.256810990370000e-4 5.355375619039999e-4 5.455596757430000e-4 5.557502245379999e-4
5.661120390630000e-4 5.766479976659999e-4 5.873610270700000e-4 5.982541031860000e-4
6.093302519389999e-4 6.205925501060000e-4 6.320441261779999e-4 6.436881612200001e-4
6.555278897620001e-4 6.675666006940001e-4 6.798076381790001e-4 6.922544025850000e-4
7.049103514250000e-4 7.177790003230000e-4 7.308639239860000e-4 7.441687571990001e-4
7.576971958340001e-4 7.714529978789999e-4 7.854399844780000e-4 7.996620409950000e-4
8.141231180920000e-4 8.288272328290001e-4 8.437784697760000e-4 8.589809821510002e-4
8.744389929720001e-4 8.901567962300001e-4 9.061387580820000e-4 9.223893180650000e-4
9.389129903280001e-4 9.557143648870001e-4 9.727981088970001e-4 9.901689679530000e-4
1.007831767410000e-3 1.025791413700000e-3 1.044052895750000e-3 1.062621286290000e-3
1.081501743340000e-3 1.100699511600000e-3 1.120219923880000e-3 1.140068402670000e-3
1.160250461550000e-3 1.180771706770000e-3 1.201637838830000e-3 1.222854653990000e-3
1.244428045960000e-3 1.266364007480000e-3 1.288668632020000e-3 1.311348115440000e-3
1.334408757760000e-3 1.357856964850000e-3 1.381699250260000e-3 1.405942237000000e-3
1.430592659370000e-3 1.455657364890000e-3 1.481143316140000e-3 1.507057592700000e-3
1.533407393150000e-3 1.560200037060000e-3 1.587442966990000e-3 1.615143750600000e-3
1.643310082730000e-3 1.671949787550000e-3 1.701070820700000e-3 1.730681271570000e-3
1.760789365450000e-3 1.791403465900000e-3 1.822532077050000e-3 1.854183845910000e-3
1.886367564860000e-3 1.919092174030000e-3 1.952366763780000e-3 1.986200577290001e-3
2.020603013050000e-3 2.055583627500000e-3 2.091152137720000e-3 2.127318424070000e-3
2.164092532980000e-3 2.201484679720000e-3 2.239505251230000e-3 2.278164809020000e-3
2.317474092110000e-3 2.357444020010000e-3 2.398085695710000e-3 2.439410408850000e-3
2.481429638770000e-3 2.524155057740000e-3 2.567598534230000e-3 2.611772136130000e-3
2.656688134190000e-3 2.702359005340000e-3 2.748797436250000e-3 2.796016326770000e-3
2.844028793560000e-3 2.892848173730000e-3 2.942488028530000e-3 2.992962147140000e-3
3.044284550460000e-3 3.096469495040000e-3 3.149531477040001e-3 3.203485236250000e-3
3.258345760150000e-3 3.314128288150000e-3 3.370848315740000e-3 3.428521598860001e-3
3.487164158220000e-3 3.546792283820000e-3 3.607422539389999e-3 3.669071767070000e-3
3.731757092040000e-3 3.795495927290000e-3 3.860305978460000e-3 3.926205248760000e-3
3.993212043979999e-3 4.061344977530000e-3 4.130622975670001e-3 4.201065282740001e-3
4.272691466500000e-3 4.345521423560000e-3 4.419575384950000e-3 4.494873921670000e-3
4.571437950480000e-3 4.649288739660000e-3 4.728447914920000e-3 4.808937465430000e-3
4.890779749919999e-3 4.973997502880000e-3 5.058613840890001e-3 5.144652269040000e-3
5.232136687430000e-3 5.321091397870000e-3 5.411541110560001e-3 5.503510951000000e-3
5.597026466960000e-3 5.692113635590000e-3 5.788798870580001e-3 5.887109029579999e-3
5.987071421590000e-3 6.088713814590001e-3 6.192064443220000e-3 6.297152016670000e-3
6.404005726589999e-3 6.512655255270000e-3 6.623130783819999e-3 6.735463000600000e-3
6.849683109729999e-3 6.965822839750001e-3 7.083914452450001e-3 7.203990751809998e-3
7.326085093120000e-3 7.450231392270000e-3 7.576464135140000e-3 7.704818387199999e-3
7.835329803219999e-3 7.968034637210000e-3 8.102969752500000e-3 8.240172631900000e-3
8.379681388240002e-3 8.521534774819999e-3 8.665772196279999e-3 8.812433719500000e-3
8.961560084740000e-3 9.113192716939999e-3 9.267373737250001e-3 9.424145974730001e-3
9.583552978230001e-3 9.745639028490000e-3 9.910449150470001e-3 1.007802912580000e-2
1.024842550560000e-2 1.042168562320000e-2 1.059785760760000e-2 1.077699039660000e-2
1.095913375040000e-2 1.114433826560000e-2 1.133265538910000e-2 1.152413743230000e-2
1.171883758610000e-2 1.191680993490000e-2 1.211810947250000e-2 1.232279211660000e-2
1.253091472480000e-2 1.274253511030000e-2 1.295771205800000e-2 1.317650534050000e-2
1.339897573530000e-2 1.362518504100000e-2 1.385519609500000e-2 1.408907279070000e-2
1.432688009550000e-2 1.456868406850000e-2 1.481455187890000e-2 1.506455182490000e-2
1.531875335260000e-2 1.557722707520000e-2 1.584004479260000e-2 1.610727951130000e-2
1.637900546510000e-2 1.665529813500000e-2 1.693623427070000e-2 1.722189191200000e-2
1.751235041000000e-2 1.780769044950000e-2 1.810799407120000e-2 1.841334469490000e-2
1.872382714200000e-2 1.903952765960000e-2 1.936053394450000e-2 1.968693516710000e-2
2.001882199640000e-2 2.035628662550000e-2 2.069942279660000e-2 2.104832582760000e-2
2.140309263810000e-2 2.176382177690000e-2 2.213061344880000e-2 2.250356954270000e-2
2.288279366000000e-2 2.326839114300000e-2 2.366046910480000e-2 2.405913645830000e-2
2.446450394710000e-2 2.487668417580000e-2 2.529579164160000e-2 2.572194276590000e-2
2.615525592690000e-2 2.659585149200000e-2 2.704385185170000e-2 2.749938145340000e-2
2.796256683620000e-2 2.843353666550001e-2 2.891242176940000e-2 2.939935517460000e-2
2.989447214340000e-2 3.039791021160000e-2 3.090980922640000e-2 3.143031138500000e-2
3.195956127490001e-2 3.249770591340000e-2 3.304489478840000e-2 3.360127990040001e-2
3.416701580450000e-2 3.474225965300000e-2 3.532717123980000e-2 3.592191304390000e-2
3.652665027520000e-2 3.714155092030000e-2 3.776678578880000e-2 3.840252856100000e-2
3.904895583630000e-2 3.970624718200000e-2 4.037458518310000e-2 4.105415549360000e-2
4.174514688720000e-2 4.244775131040001e-2 4.316216393570000e-2 4.388858321570000e-2
4.462721093799999e-2 4.537825228190000e-2 4.614191587470000e-2 4.691841385020000e-2
4.770796190720000e-2 4.851077936969999e-2 4.932708924769999e-2 5.015711829930001e-2
5.100109709330001e-2 5.185926007370000e-2 5.273184562470000e-2 5.361909613680000e-2
5.452125807420001e-2 5.543858204310000e-2 5.637132286170000e-2 5.731973963060000e-2
5.828409580520000e-2 5.926465926820001e-2 6.026170240470000e-2 6.127550217760001e-2
6.230634020440000e-2 6.335450283570000e-2 6.442028123440000e-2 6.550397145710001e-2
6.660587453560001e-2 6.772629656140000e-2 6.886554876990001e-2 7.002394762740000e-2
7.120181491880000e-2 7.239947783700000e-2 7.361726907400000e-2 7.485552691280000e-2
7.611459532200000e-2 7.739482405080000e-2 7.869656872670000e-2 8.002019095360000e-2
8.136605841300000e-2 8.273454496550002e-2 8.412603075520000e-2 8.554090231480000e-2
8.697955267330000e-2 8.844238146500000e-2 8.992979504070000e-2 9.144220658040002e-2
9.298003620799999e-2 9.454371110850001e-2 9.613366564600000e-2 9.775034148470001e-2
9.939418771170001e-2 1.010656609620000e-1 1.027652255430000e-1 1.044933535680000e-1
1.062505250840000e-1 1.080372282050000e-1 1.098539592490000e-1 1.117012228750000e-1
1.135795322240000e-1 1.154894090600000e-1 1.174313839180000e-1 1.194059962460000e-1
1.214137945620000e-1 1.234553365990000e-1 1.255311894670000e-1 1.276419298030000e-1
1.297881439390000e-1 1.319704280590000e-1 1.341893883670000e-1 1.364456412550000e-1
1.387398134740000e-1 1.410725423100000e-1 1.434444757570000e-1 1.458562727010000e-1
1.483086031020000e-1 1.508021481770000e-1 1.533376005950000e-1 1.559156646640000e-1
1.585370565290000e-1 1.612025043730000e-1 1.639127486130000e-1 1.666685421130000e-1
1.694706503890000e-1 1.723198518230000e-1 1.752169378780000e-1 1.781627133180000e-1
1.811579964330000e-1 1.842036192660000e-1 1.873004278420000e-1 1.904492824070000e-1
1.936510576610000e-1 1.969066430080000e-1 2.002169427990000e-1 2.035828765810000e-1
2.070053793580000e-1 2.104854018480000e-1 2.140239107460000e-1 2.176218889930000e-1
2.212803360510000e-1 2.250002681800000e-1 2.287827187160000e-1 2.326287383660000e-1
2.365393954930000e-1 2.405157764160000e-1 2.445589857100000e-1 2.486701465160000e-1
2.528504008480000e-1 2.571009099150000e-1 2.614228544430000e-1 2.658174349980000e-1
2.702858723250000e-1 2.748294076870000e-1 2.794493032050000e-1 2.841468422140000e-1
2.889233296150000e-1 2.937800922410000e-1 2.987184792250000e-1 3.037398623720000e-1
3.088456365430000e-1 3.140372200420000e-1 3.193160550080000e-1 3.246836078190000e-1
3.301413694950000e-1 3.356908561180000e-1 3.413336092460000e-1 3.470711963480000e-1
3.529052112340000e-1 3.588372745010000e-1 3.648690339840000e-1 3.710021652100000e-1
3.772383718650000e-1 3.835793862690000e-1 3.900269698570000e-1 3.965829136650000e-1
4.032490388300000e-1 4.100271970970000e-1 4.169192713310000e-1 4.239271760419999e-1
4.310528579150000e-1 4.382982963520000e-1 4.456655040210000e-1 4.531565274160000e-1
4.607734474250000e-1 4.685183799080000e-1 4.763934762860000e-1 4.844009241350000e-1
4.925429477980000e-1 5.008218090000000e-1 5.092398074800000e-1 5.177992816230001e-1
5.265026091160000e-1 5.353522076070000e-1 5.443505353730000e-1 5.535000920100001e-1
5.628034191170000e-1 5.722631010140001e-1 5.818817654500000e-1 5.916620843390000e-1
6.016067744980001e-1 6.117185984050000e-1 6.220003649660000e-1 6.324549302930000e-1
6.430851984980000e-1 6.538941225040000e-1 6.648847048570000e-1 6.760599985680001e-1
6.874231079570000e-1 6.989771895170001e-1 7.107254527900000e-1 7.226711612559999e-1
7.348176332450000e-1 7.471682428560000e-1 7.597264208920000e-1 7.724956558170000e-1
7.854794947230000e-1 7.986815443160000e-1 8.121054719160000e-1 8.257550064780000e-1
8.396339396280000e-1 8.537461267130000e-1 8.680954878769999e-1 8.826860091460000e-1
8.975217435359999e-1 9.126068121790000e-1 9.279454054700000e-1 9.435417842269999e-1
9.594002808790000e-1 9.755253006649999e-1 9.919213228600000e-1 1.008592902020000e0
1.025544669250000e0 1.042781333480000e0 1.060307682790000e0 1.078128585710000e0
1.096248992610000e0 1.114673937060000e0 1.133408537210000e0 1.152457997240000e0
1.171827608790000e0 1.191522752430000e0 1.211548899170000e0 1.231911611940000e0
1.252616547190000e0 1.273669456420000e0 1.295076187800000e0 1.316842687780000e0
1.338975002750000e0 1.361479280720000e0 1.384361773010000e0 1.407628836040000e0
1.431286933010000e0 1.455342635780000e0 1.479802626630000e0 1.504673700170000e0
1.529962765200000e0 1.555676846600000e0 1.581823087350000e0 1.608408750460000e0
1.635441221010000e0 1.662928008190000e0 1.690876747400000e0 1.719295202350000e0
1.748191267240000e0 1.777572968950000e0 1.807448469250000e0 1.837826067070000e0
1.868714200840000e0 1.900121450790000e0 1.932056541360000e0 1.964528343610000e0
1.997545877700000e0 2.031118315370000e0 2.065254982520000e0 2.099965361790000e0
2.135259095150000e0 2.171145986650000e0 2.207636005120000e0 2.244739286880000e0
2.282466138660000e0 2.320827040380000e0 2.359832648080000e0 2.399493796910000e0
2.439821504110000e0 2.480826972090000e0 2.522521591510000e0 2.564916944470000e0
2.608024807750000e0 2.651857156010000e0 2.696426165210000e0 2.741744215890000e0
2.787823896710000e0 2.834678007870000e0 2.882319564700000e0 2.930761801280000e0
2.980018174090000e0 3.030102365770000e0 3.081028288930000e0 3.132810089970000e0
3.185462153080000e0 3.238999104150000e0 3.293435814900000e0 3.348787407010000e0
3.405069256260000e0 3.462296996860000e0 3.520486525770000e0 3.579654007140000e0
3.639815876750000e0 3.700988846610000e0 3.763189909610000e0 3.826436344230000e0
3.890745719330000e0 3.956135899030000e0 4.022625047690000e0 4.090231634960000e0
4.158974440860000e0 4.228872561080000e0 4.299945412190000e0 4.372212737130000e0
4.445694610600000e0 4.520411444710000e0 4.596383994630000e0 4.673633364310000e0
4.752181012430000e0 4.832048758280000e0 4.913258787840000e0 4.995833660000000e0
5.079796312730000e0 5.165170069550000e0 5.251978645940000e0 5.340246155930000e0
5.429997118870000e0 5.521256466140000e0 5.614049548150000e0 5.708402141350000e0
5.804340455410000e0 5.901891140470000e0 6.001081294570000e0 6.101938471170000e0
6.204490686810000e0 6.308766428860000e0 6.414794663490000e0 6.522604843660000e0
6.632226917330000e0 6.743691335790000e0 6.857029062100000e0 6.972271579680000e0
7.089450901080000e0 7.208599576870000e0 7.329750704680000e0 7.452937938360000e0
7.578195497390000e0 7.705558176350000e0 7.835061354560000e0 7.966741005980000e0
8.100633709120000e0 8.236776657260000e0 8.375207668780000e0 8.515965197600000e0
8.659088343970000e0 8.804616865210001e0 8.952591186859999e0 9.103052413860000e0
9.256042341940001e0 9.411603469299999e0 9.569779008359999e0 9.730612897789999e0
9.894149814710000e0 1.006043518710000e1 1.022951520640000e1 1.040143684030000e1
1.057624784600000e1 1.075399678330000e1 1.093473302790000e1 1.111850678550000e1
1.130536910560000e1 1.149537189570000e1 1.168856793530000e1 1.188501089150000e1
1.208475533290000e1 1.228785674530000e1 1.249437154720000e1 1.270435710510000e1
1.291787174970000e1 1.313497479190000e1 1.335572653950000e1 1.358018831400000e1
1.380842246720000e1 1.404049239900000e1 1.427646257470000e1 1.451639854320000e1
1.476036695480000e1 1.500843558020000e1 1.526067332880000e1 1.551715026840000e1
1.577793764410000e1 1.604310789870000e1 1.631273469220000e1 1.658689292260000e1
1.686565874680000e1 1.714910960160000e1 1.743732422510000e1 1.773038267870000e1
1.802836636960000e1 1.833135807280000e1 1.863944195470000e1 1.895270359610000e1
1.927123001620000e1 1.959510969650000e1 1.992443260570000e1 2.025929022450000e1
2.059977557110000e1 2.094598322690000e1 2.129800936300000e1 2.165595176660000e1
2.201990986850000e1 2.238998477050000e1 2.276627927360000e1 2.314889790650000e1
2.353794695440000e1 2.393353448930000e1 2.433577039890000e1 2.474476641810000e1
2.516063615960000e1 2.558349514530000e1 2.601346083880000e1 2.645065267790000e1
2.689519210740000e1 2.734720261340000e1 2.780680975740000e1 2.827414121090000e1
2.874932679110000e1 2.923249849730000e1 2.972379054670000e1 3.022333941270000e1
3.073128386190000e1 3.124776499340000e1 3.177292627740000e1 3.230691359540000e1
3.284987528080000e1 3.340196215960000e1 3.396332759290000e1 3.453412751910000e1
3.511452049750000e1 3.570466775200000e1 3.630473321630000e1 3.691488357900000e1
3.753528833030000e1 3.816611980880000e1 3.880755324950000e1 3.945976683260001e1
4.012294173270000e1 4.079726216920000e1 4.148291545780000e1 4.218009206200001e1
4.288898564660000e1 4.360979313100001e1 4.434271474420000e1 4.508795408010000e1
4.584571815450000e1 4.661621746230000e1 4.739966603600000e1 4.819628150530001e1
4.900628515730000e1 4.982990199840000e1 5.066736081620000e1 5.151889424350000e1
5.238473882300000e1 5.326513507260001e1 5.416032755240000e1 5.507056493270000e1
5.599610006320000e1 5.693719004290000e1 5.789409629180000e1 5.886708462320001e1
5.985642531790000e1 6.086239319920001e1 6.188526770910000e1 6.292533298600000e1
6.398287794350001e1 6.505819635100001e1 6.615158691490000e1 6.726335336180000e1
6.839380452300000e1 6.954325441990000e1 7.071202235150000e1 7.190043298310001e1
7.310881643640001e1 7.433750838130000e1 7.558685012890000e1 7.685718872680001e1
7.814887705480000e1 7.946227392350001e1 8.079774417400001e1 8.215565877880001e1
8.353639494499999e1 8.494033621940000e1 8.636787259470001e1 8.781940061800000e1
8.929532350080001e1 9.079605123120000e1 9.232200068770000e1 9.387359575480000e1
9.545126744130000e1 9.705545399940000e1 9.868660104680002e1 1.003451616900000e2
1.020315966520000e2 1.037463743970000e2 1.054899712630000e2 1.072628715940000e2
1.090655678740000e2 1.108985608630000e2 1.127623597380000e2 1.146574822330000e2
1.165844547820000e2 1.185438126690000e2 1.205361001720000e2 1.225618707160000e2
1.246216870300000e2 1.267161212970000e2 1.288457553190000e2 1.310111806730000e2
1.332129988810000e2 1.354518215740000e2 1.377282706610000e2 1.400429785030000e2
1.423965880890000e2 1.447897532160000e2 1.472231386670000e2 1.496974203980000e2
1.522132857250000e2 1.547714335150000e2 1.573725743830000e2 1.600174308830000e2
1.627067377160000e2 1.654412419280000e2 1.682217031210000e2 1.710488936640000e2
1.739235989040000e2 1.768466173910000e2 1.798187610920000e2 1.828408556230000e2
1.859137404720000e2 1.890382692400000e2 1.922153098700000e2 1.954457448940000e2
1.987304716770000e2 2.020704026640000e2 2.054664656340000e2
</PP_R>
<PP_RAB>
1.013202183950000e-6 1.030230394600000e-6 1.047544786990000e-6 1.065150170770000e-6
1.083051436450000e-6 1.101253556720000e-6 1.119761587830000e-6 1.138580671030000e-6
1.157716033960000e-6 1.177172992120000e-6 1.196956950350000e-6 1.217073404310000e-6
1.237527942050000e-6 1.258326245510000e-6 1.279474092120000e-6 1.300977356430000e-6
1.322842011710000e-6 1.345074131610000e-6 1.367679891860000e-6 1.390665571980000e-6
1.414037557040000e-6 1.437802339410000e-6 1.461966520550000e-6 1.486536812910000e-6
1.511520041720000e-6 1.536923146930000e-6 1.562753185110000e-6 1.589017331450000e-6
1.615722881720000e-6 1.642877254280000e-6 1.670487992200000e-6 1.698562765300000e-6
1.727109372320000e-6 1.756135743040000e-6 1.785649940540000e-6 1.815660163400000e-6
1.846174747970000e-6 1.877202170740000e-6 1.908751050620000e-6 1.940830151400000e-6
1.973448384150000e-6 2.006614809690000e-6 2.040338641140001e-6 2.074629246450000e-6
2.109496150990000e-6 2.144949040250000e-6 2.180997762490000e-6 2.217652331450000e-6
2.254922929220000e-6 2.292819908960000e-6 2.331353797870000e-6 2.370535300040000e-6
2.410375299490000e-6 2.450884863120000e-6 2.492075243870000e-6 2.533957883770000e-6
2.576544417150000e-6 2.619846673880000e-6 2.663876682640000e-6 2.708646674280000e-6
2.754169085180000e-6 2.800456560770000e-6 2.847521958960000e-6 2.895378353790000e-6
2.944039038990000e-6 2.993517531749999e-6 3.043827576410000e-6 3.094983148300000e-6
3.146998457630001e-6 3.199887953430000e-6 3.253666327580000e-6 3.308348518840000e-6
3.363949717080000e-6 3.420485367430000e-6 3.477971174600000e-6 3.536423107230000e-6
3.595857402360000e-6 3.656290569879999e-6 3.717739397190000e-6 3.780220953790000e-6
3.843752596070000e-6 3.908351972120000e-6 3.974037026630000e-6 4.040826005870000e-6
4.108737462759999e-6 4.177790262030000e-6 4.248003585460000e-6 4.319396937200000e-6
4.391990149190000e-6 4.465803386690000e-6 4.540857153850000e-6 4.617172299409999e-6
4.694770022529999e-6 4.773671878609998e-6 4.853899785359999e-6 4.935476028819999e-6
5.018423269570000e-6 5.102764549060001e-6 5.188523295950001e-6 5.275723332680000e-6
5.364388882030001e-6 5.454544573910001e-6 5.546215452120000e-6 5.639426981400000e-6
5.734205054439999e-6 5.830575999090001e-6 5.928566585670001e-6 6.028204034430001e-6
6.129516023070001e-6 6.232530694460000e-6 6.337276664450000e-6 6.443783029820001e-6
6.552079376359999e-6 6.662195787080000e-6 6.774162850570001e-6 6.888011669530002e-6
7.003773869350000e-6 7.121481606950000e-6 7.241167579679999e-6 7.362865034400000e-6
7.486607776760001e-6 7.612430180530000e-6 7.740367197190000e-6 7.870454365610001e-6
8.002727821970000e-6 8.137224309739999e-6 8.273981189919999e-6 8.413036451400000e-6
8.554428721560001e-6 8.698197276919998e-6 8.844382054119999e-6 8.993023660980002e-6
9.144163387799999e-6 9.297843218799999e-6 9.454105843820003e-6 9.612994670130002e-6
9.774553834559999e-6 9.938828215680001e-6 1.010586344630000e-5 1.027570592620000e-5
1.044840283500000e-5 1.062400214500000e-5 1.080255263510000e-5 1.098410390370000e-5
1.116870638290000e-5 1.135641135240000e-5 1.154727095360000e-5 1.174133820430000e-5
1.193866701330000e-5 1.213931219550000e-5 1.234332948690000e-5 1.255077556040000e-5
1.276170804100000e-5 1.297618552270000e-5 1.319426758370000e-5 1.341601480390000e-5
1.364148878120000e-5 1.387075214860000e-5 1.410386859190000e-5 1.434090286720000e-5
1.458192081880000e-5 1.482698939780000e-5 1.507617668020000e-5 1.532955188650000e-5
1.558718540020000e-5 1.584914878780000e-5 1.611551481860000e-5 1.638635748500000e-5
1.666175202280000e-5 1.694177493210000e-5 1.722650399890000e-5 1.751601831650000e-5
1.781039830740000e-5 1.810972574560000e-5 1.841408377970000e-5 1.872355695550000e-5
1.903823123970000e-5 1.935819404390000e-5 1.968353424870000e-5 2.001434222840000e-5
2.035070987640000e-5 2.069273063010000e-5 2.104049949770000e-5 2.139411308380000e-5
2.175366961660000e-5 2.211926897530000e-5 2.249101271760000e-5 2.286900410800000e-5
2.325334814670000e-5 2.364415159820000e-5 2.404152302170000e-5 2.444557280050000e-5
2.485641317350000e-5 2.527415826550000e-5 2.569892411960000e-5 2.613082872890000e-5
2.656999206980000e-5 2.701653613490000e-5 2.747058496700000e-5 2.793226469390000e-5
2.840170356280000e-5 2.887903197639999e-5 2.936438252900000e-5 2.985789004340000e-5
3.035969160810001e-5 3.086992661570001e-5 3.138873680140000e-5 3.191626628250000e-5
3.245266159830000e-5 3.299807175110000e-5 3.355264824700000e-5 3.411654513880000e-5
3.468991906800000e-5 3.527292930900001e-5 3.586573781259999e-5 3.646850925180000e-5
3.708141106700000e-5 3.770461351260001e-5 3.833828970440000e-5 3.898261566760000e-5
3.963777038580001e-5 4.030393585070000e-5 4.098129711250001e-5 4.167004233139999e-5
4.237036283009999e-5 4.308245314640001e-5 4.380651108780000e-5 4.454273778620000e-5
4.529133775369999e-5 4.605251893970000e-5 4.682649278810000e-5 4.761347429670000e-5
4.841368207660000e-5 4.922733841279999e-5 5.005466932620001e-5 5.089590463620000e-5
5.175127802490000e-5 5.262102710130002e-5 5.350539346800000e-5 5.440462278810000e-5
5.531896485320001e-5 5.624867365310000e-5 5.719400744630000e-5 5.815522883160000e-5
5.913260482100000e-5 6.012640691420001e-5 6.113691117380000e-5 6.216439830180000e-5
6.320915371790001e-5 6.427146763870001e-5 6.535163515829999e-5 6.644995633000001e-5
6.756673625019999e-5 6.870228514280001e-5 6.985691844519999e-5 7.103095689630001e-5
7.222472662559999e-5 7.343855924330000e-5 7.467279193310000e-5 7.592776754510000e-5
7.720383469200001e-5 7.850134784490002e-5 7.982066743259999e-5 8.116215994110000e-5
8.252619801590001e-5 8.391316056530000e-5 8.532343286550002e-5 8.675740666789999e-5
8.821548030790002e-5 8.969805881510002e-5 9.120555402660003e-5 9.273838470060001e-5
9.429697663340001e-5 9.588176277709998e-5 9.749318336030001e-5 9.913168601030000e-5
1.007977258770000e-4 1.024917657600000e-4 1.042142762380000e-4 1.059657357950000e-4
1.077466309600000e-4 1.095574564380000e-4 1.113987152480000e-4 1.132709188610000e-4
1.151745873460000e-4 1.171102495130000e-4 1.190784430580000e-4 1.210797147140000e-4
1.231146204030000e-4 1.251837253880000e-4 1.272876044360000e-4 1.294268419710000e-4
1.316020322380000e-4 1.338137794710000e-4 1.360626980590000e-4 1.383494127160000e-4
1.406745586550000e-4 1.430387817640000e-4 1.454427387890000e-4 1.478870975090000e-4
1.503725369300000e-4 1.528997474660000e-4 1.554694311380000e-4 1.580823017630000e-4
1.607390851540000e-4 1.634405193260000e-4 1.661873546920000e-4 1.689803542810000e-4
1.718202939440000e-4 1.747079625710000e-4 1.776441623110000e-4 1.806297087940001e-4
1.836654313570000e-4 1.867521732770000e-4 1.898907920020000e-4 1.930821593890000e-4
1.963271619520000e-4 1.996267010990000e-4 2.029816933920000e-4 2.063930707930000e-4
2.098617809310000e-4 2.133887873560000e-4 2.169750698170000e-4 2.206216245260000e-4
2.243294644390000e-4 2.280996195330000e-4 2.319331371000000e-4 2.358310820300000e-4
2.397945371100000e-4 2.438246033250000e-4 2.479224001650000e-4 2.520890659320000e-4
2.563257580610000e-4 2.606336534380000e-4 2.650139487270000e-4 2.694678607060000e-4
2.739966266020000e-4 2.786015044330000e-4 2.832837733630000e-4 2.880447340510000e-4
2.928857090170000e-4 2.978080430090000e-4 3.028131033710000e-4 3.079022804320000e-4
3.130769878830000e-4 3.183386631780000e-4 3.236887679260001e-4 3.291287883020000e-4
3.346602354580000e-4 3.402846459420000e-4 3.460035821270000e-4 3.518186326430000e-4
3.577314128200000e-4 3.637435651330000e-4 3.698567596650000e-4 3.760726945630000e-4
3.823930965170000e-4 3.888197212350000e-4 3.953543539300000e-4 4.019988098220001e-4
4.087549346350000e-4 4.156246051130000e-4 4.226097295440000e-4 4.297122482830000e-4
4.369341342980000e-4 4.442773937159999e-4 4.517440663780000e-4 4.593362264080000e-4
4.670559827870000e-4 4.749054799430001e-4 4.828868983410000e-4 4.910024550939999e-4
4.992544045750000e-4 5.076450390450001e-4 5.161766892900000e-4 5.248517252679999e-4
5.336725567659999e-4 5.426416340739999e-4 5.517614486570000e-4 5.610345338580000e-4
5.704634655920000e-4 5.800508630680000e-4 5.897993895130000e-4 5.997117529150000e-4
6.097907067710000e-4 6.200390508560001e-4 6.304596319969999e-4 6.410553448670000e-4
6.518291327890000e-4 6.627839885500000e-4 6.739229552359999e-4 6.852491270770001e-4
6.967656503030001e-4 7.084757240240000e-4 7.203826011129999e-4 7.324895891119999e-4
7.448000511510000e-4 7.573174068819998e-4 7.700451334289999e-4 7.829867663540000e-4
7.961459006379999e-4 8.095261916789999e-4 8.231313563130000e-4 8.369651738390001e-4
8.510314870719998e-4 8.653342034130000e-4 8.798772959299999e-4 8.946648044650001e-4
9.097008367530000e-4 9.249895695680001e-4 9.405352498779997e-4 9.563421960279999e-4
9.724147989370000e-4 9.887575233200000e-4 1.005374908930000e-3 1.022271571810000e-3
1.039452205590000e-3 1.056921582780000e-3 1.074684556090000e-3 1.092746059800000e-3
1.111111111110000e-3 1.129784811540000e-3 1.148772348350000e-3 1.168078995970000e-3
1.187710117500000e-3 1.207671166130000e-3 1.227967686750000e-3 1.248605317400000e-3
1.269589790880000e-3 1.290926936360000e-3 1.312622680960000e-3 1.334683051410000e-3
1.357114175730000e-3 1.379922284940000e-3 1.403113714770000e-3 1.426694907430000e-3
1.450672413410000e-3 1.475052893270000e-3 1.499843119530000e-3 1.525049978520000e-3
1.550680472320000e-3 1.576741720660000e-3 1.603240962950000e-3 1.630185560260000e-3
1.657582997380000e-3 1.685440884880000e-3 1.713766961230000e-3 1.742569094990000e-3
1.771855286920000e-3 1.801633672270000e-3 1.831912523000000e-3 1.862700250100000e-3
1.894005405910000e-3 1.925836686520000e-3 1.958202934140001e-3 1.991113139620000e-3
2.024576444880000e-3 2.058602145500000e-3 2.093199693290000e-3 2.128378698900000e-3
2.164148934510000e-3 2.200520336500000e-3 2.237503008300000e-3 2.275107223100000e-3
2.313343426750000e-3 2.352222240680000e-3 2.391754464800000e-3 2.431951080540000e-3
2.472823253880000e-3 2.514382338470000e-3 2.556639878770000e-3 2.599607613250000e-3
2.643297477670000e-3 2.687721608390000e-3 2.732892345730000e-3 2.778822237400000e-3