<UPF version="2.0.1">
<PP_INFO>
Generated by new atomic code, or converted to UPF format
Author:
Generation date:
Pseudopotential type: US
Element: Al
Functional:  SLA  PW   PBE  PBE
Suggested minimum cutoff for wavefunctions:   0. Ry
Suggested minimum cutoff for charge density:   0. Ry
The Pseudo was generated with a Non-Relativistic Calculation
L component and cutoff radius for Local Potential:  0   0.0000
Valence configuration:
nl pn  l   occ       Rcut    Rcut US       E pseu
3S  0  0  2.00     10.000      1.765     0.000000
3P  0  1  1.00     10.000      1.765     0.000000
Generation configuration: not available.
</PP_INFO>
<!--
END OF HUMAN READABLE SECTION
-->
<PP_HEADER generated="Generated by new atomic code, or converted to UPF format" author="" date="" comment="" element="Al" pseudo_type="US" relativistic="no" is_ultrasoft="true" is_paw="false" is_coulomb="false" has_so="false" has_wfc="false" has_gipaw="false" paw_as_gipaw="false" core_correction="true" functional=" SLA  PW   PBE  PBE" z_valence="3.000000000000e0" total_psenergy="-1.218899008180e1" wfc_cutoff="0.000000000000e0" rho_cutoff="0.000000000000e0" l_max="1" l_max_rho="0" l_local="0" mesh_size="893" number_of_wfc="2" number_of_proj="2"/>
<PP_MESH mesh="893" rmax="2.006810756590e2" zmesh="1.300000000000e1">
<PP_R>
0.000000000000000e0 1.178876122030000e-6 2.377564825650000e-6 3.596399087650000e-6
4.835717480950000e-6 6.095864268620001e-6 7.377189499540000e-6 8.680049105620000e-6
1.000480500070000e-5 1.135182518100000e-5 1.272148382750000e-5 1.411416140980000e-5
1.553024479160000e-5 1.697012733850000e-5 1.843420902730000e-5 1.992289655670000e-5
2.143660346050000e-5 2.297575022260000e-5 2.454076439380000e-5 2.613208071010000e-5
2.775014121430000e-5 2.939539537780000e-5 3.106830022640001e-5 3.276932046659999e-5
3.449892861490000e-5 3.625760512920000e-5 3.804583854200000e-5 3.986412559640000e-5
4.171297138380000e-5 4.359288948430001e-5 4.550440210950000e-5 4.744804024740001e-5
4.942434380999999e-5 5.143386178320000e-5 5.347715237940001e-5 5.555478319240001e-5
5.766733135530000e-5 5.981538370060000e-5 6.199953692330000e-5 6.422039774669999e-5
6.647858309080002e-5 6.877472024380000e-5 7.110944703650000e-5 7.348341201900000e-5
7.589727464130000e-5 7.835170543640000e-5 8.084738620630000e-5 8.338501021180001e-5
8.596528236470002e-5 8.858891942390001e-5 9.125665019430002e-5 9.396921572949999e-5
9.672736953720001e-5 9.953187778909999e-5 1.023835195330000e-4 1.052830869110000e-4
1.082313853750000e-4 1.112292339180000e-4 1.142774652940000e-4 1.173769262530000e-4
1.205284777780000e-4 1.237329953180000e-4 1.269913690390000e-4 1.303045040660000e-4
1.336733207340000e-4 1.370987548480000e-4 1.405817579400000e-4 1.441232975320000e-4
1.477243574080000e-4 1.513859378870000e-4 1.551090560970000e-4 1.588947462620000e-4
1.627440599860000e-4 1.666580665490000e-4 1.706378531990000e-4 1.746845254580000e-4
1.787992074280000e-4 1.829830421030000e-4 1.872371916860000e-4 1.915628379120000e-4
1.959611823780000e-4 2.004334468740000e-4 2.049808737240000e-4 2.096047261330000e-4
2.143062885330000e-4 2.190868669440000e-4 2.239477893350000e-4 2.288904059940000e-4
2.339160899010000e-4 2.390262371130000e-4 2.442222671470000e-4 2.495056233780000e-4
2.548777734400001e-4 2.603402096310000e-4 2.658944493290000e-4 2.715420354140000e-4
2.772845366970000e-4 2.831235483540000e-4 2.890606923690000e-4 2.950976179890000e-4
3.012360021750000e-4 3.074775500740000e-4 3.138239954890000e-4 3.202771013620000e-4
3.268386602650000e-4 3.335104948940000e-4 3.402944585810000e-4 3.471924358020000e-4
3.542063427080000e-4 3.613381276510000e-4 3.685897717270000e-4 3.759632893300000e-4
3.834607287050000e-4 3.910841725240000e-4 3.988357384590000e-4 4.067175797710000e-4
4.147318859130000e-4 4.228808831310000e-4 4.311668350890000e-4 4.395920434930000e-4
4.481588487330001e-4 4.568696305330000e-4 4.657268086089999e-4 4.747328433460000e-4
4.838902364780001e-4 4.932015317850000e-4 5.026693157980000e-4 5.122962185160000e-4
5.220849141420000e-4 5.320381218210000e-4 5.421586063960000e-4 5.524491791789999e-4
5.629126987279999e-4 5.735520716440000e-4 5.843702533750000e-4 5.953702490440000e-4
6.065551142730000e-4 6.179279560430000e-4 6.294919335490000e-4 6.412502590820001e-4
6.532061989190002e-4 6.653630742300000e-4 6.777242620040001e-4 6.902931959840000e-4
7.030733676210000e-4 7.160683270460000e-4 7.292816840510000e-4 7.427171091000001e-4
7.563783343410001e-4 7.702691546470000e-4 7.843934286679999e-4 7.987550799050000e-4
8.133580977980001e-4 8.282065388340001e-4 8.433045276760001e-4 8.586562583060001e-4
8.742659951929999e-4 8.901380744760001e-4 9.062769051669999e-4 9.226869703789998e-4
9.393728285679998e-4 9.563391148029998e-4 9.735905420500000e-4 9.911319024819999e-4
1.008968068810000e-3 1.027103995650000e-3 1.045544720860000e-3 1.064295367000000e-3
1.083361142690000e-3 1.102747344100000e-3 1.122459356420000e-3 1.142502655330000e-3
1.162882808550000e-3 1.183605477350000e-3 1.204676418170000e-3 1.226101484180000e-3
1.247886626940000e-3 1.270037898000000e-3 1.292561450630000e-3 1.315463541540000e-3
1.338750532550000e-3 1.362428892430000e-3 1.386505198650000e-3 1.410986139220000e-3
1.435878514570000e-3 1.461189239400000e-3 1.486925344630000e-3 1.513093979360000e-3
1.539702412800000e-3 1.566758036370000e-3 1.594268365690000e-3 1.622241042690000e-3
1.650683837740000e-3 1.679604651800000e-3 1.709011518620000e-3 1.738912606960000e-3
1.769316222870000e-3 1.800230811990000e-3 1.831664961910000e-3 1.863627404540000e-3
1.896127018530000e-3 1.929172831780000e-3 1.962774023890000e-3 1.996939928730000e-3
2.031680037060000e-3 2.067003999120000e-3 2.102921627360000e-3 2.139442899130000e-3
2.176577959460000e-3 2.214337123880000e-3 2.252730881290000e-3 2.291769896870000e-3
2.331465015050000e-3 2.371827262500000e-3 2.412867851220000e-3 2.454598181620000e-3
2.497029845750000e-3 2.540174630450000e-3 2.584044520650000e-3 2.628651702710000e-3
2.674008567820000e-3 2.720127715390000e-3 2.767021956590000e-3 2.814704317900000e-3
2.863188044730000e-3 2.912486605090000e-3 2.962613693340000e-3 3.013583234000000e-3
3.065409385600000e-3 3.118106544630000e-3 3.171689349520000e-3 3.226172684730000e-3
3.281571684870000e-3 3.337901738920000e-3 3.395178494460000e-3 3.453417862080000e-3
3.512636019760000e-3 3.572849417350000e-3 3.634074781200000e-3 3.696329118750000e-3
3.759629723250000e-3 3.823994178640000e-3 3.889440364320000e-3 3.955986460220000e-3
4.023650951800001e-3 4.092452635170000e-3 4.162410622370000e-3 4.233544346620000e-3
4.305873567730000e-3 4.379418377640000e-3 4.454199205910000e-3 4.530236825500000e-3
4.607552358440000e-3 4.686167281770000e-3 4.766103433470001e-3 4.847383018550000e-3
4.930028615189999e-3 5.014063181030000e-3 5.099510059550000e-3 5.186392986540000e-3
5.274736096710000e-3 5.364563930379999e-3 5.455901440290000e-3 5.548773998570001e-3
5.643207403750000e-3 5.739227887939999e-3 5.836862124110000e-3 5.936137233509999e-3
6.037080793189999e-3 6.139720843700001e-3 6.244085896799999e-3 6.350204943460001e-3
6.458107461880001e-3 6.567823425679999e-3 6.679383312209999e-3 6.792818111050001e-3
6.908159332600000e-3 7.025439016829999e-3 7.144689742179999e-3 7.265944634620000e-3
7.389237376830000e-3 7.514602217610000e-3 7.642073981330000e-3 7.771688077620000e-3
7.903480511230000e-3 8.037487892020001e-3 8.173747445129999e-3 8.312297021310000e-3
8.453175107440000e-3 8.596420837240000e-3 8.742074002090000e-3 8.890175062150000e-3
9.040765157559999e-3 9.193886119860000e-3 9.349580483650000e-3 9.507891498349998e-3
9.668863140270002e-3 9.832540124790000e-3 9.998967918780000e-3 1.016819275330000e-2
1.034026163620000e-2 1.051522236570000e-2 1.069312354300000e-2 1.087401458620000e-2
1.105794574410000e-2 1.124496810980000e-2 1.143513363520000e-2 1.162849514520000e-2
1.182510635260000e-2 1.202502187290000e-2 1.222829723950000e-2 1.243498891910000e-2
1.264515432740000e-2 1.285885184490000e-2 1.307614083350000e-2 1.329708165270000e-2
1.352173567620000e-2 1.375016530950000e-2 1.398243400670000e-2 1.421860628830000e-2
1.445874775940000e-2 1.470292512730000e-2 1.495120622080000e-2 1.520366000830000e-2
1.546035661760000e-2 1.572136735500000e-2 1.598676472500000e-2 1.625662245090000e-2
1.653101549490000e-2 1.681002007900000e-2 1.709371370640000e-2 1.738217518260000e-2
1.767548463760000e-2 1.797372354830000e-2 1.827697476070000e-2 1.858532251310000e-2
1.889885245970000e-2 1.921765169420000e-2 1.954180877390000e-2 1.987141374460000e-2
2.020655816540000e-2 2.054733513400000e-2 2.089383931300000e-2 2.124616695560000e-2
2.160441593300000e-2 2.196868576110000e-2 2.233907762830000e-2 2.271569442360000e-2
2.309864076510000e-2 2.348802302940000e-2 2.388394938070000e-2 2.428652980100000e-2
2.469587612090000e-2 2.511210205030000e-2 2.553532321020000e-2 2.596565716470000e-2
2.640322345380000e-2 2.684814362660000e-2 2.730054127480000e-2 2.776054206730000e-2
2.822827378510000e-2 2.870386635670000e-2 2.918745189410000e-2 2.967916472990000e-2
3.017914145410000e-2 3.068752095230000e-2 3.120444444420000e-2 3.173005552319999e-2
3.226450019560001e-2 3.280792692180000e-2 3.336048665700000e-2 3.392233289380000e-2
3.449362170400000e-2 3.507451178270000e-2 3.566516449200000e-2 3.626574390580000e-2
3.687641685570000e-2 3.749735297700000e-2 3.812872475580000e-2 3.877070757740000e-2
3.942347977440000e-2 4.008722267660000e-2 4.076212066130000e-2 4.144836120450001e-2
4.214613493300000e-2 4.285563567730000e-2 4.357706052550000e-2 4.431060987810000e-2
4.505648750340000e-2 4.581490059460000e-2 4.658605982670000e-2 4.737017941570000e-2
4.816747717750000e-2 4.897817458890000e-2 4.980249684890000e-2 5.064067294110000e-2
5.149293569769999e-2 5.235952186370000e-2 5.324067216310000e-2 5.413663136559999e-2
5.504764835450001e-2 5.597397619580001e-2 5.691587220890000e-2 5.787359803759999e-2
5.884741972300000e-2 5.983760777740001e-2 6.084443725930000e-2 6.186818785020000e-2
6.290914393170000e-2 6.396759466510000e-2 6.504383407120001e-2 6.613816111229999e-2
6.725087977520000e-2 6.838229915560000e-2 6.953273354389999e-2 7.070250251260001e-2
7.189193100510000e-2 7.310134942580000e-2 7.433109373200000e-2 7.558150552740001e-2
7.685293215650001e-2 7.814572680160000e-2 7.946024858059999e-2 8.079686264700001e-2
8.215594029089999e-2 8.353785904270000e-2 8.494300277770000e-2 8.637176182250000e-2
8.782453306390002e-2 8.930172005870000e-2 9.080373314619999e-2 9.233098956179999e-2
9.388391355340000e-2 9.546293649869998e-2 9.706849702520000e-2 9.870104113250001e-2
1.003610223150000e-1 1.020489016900000e-1 1.037651481240000e-1 1.055102383620000e-1
1.072846571630000e-1 1.090888974330000e-1 1.109234603610000e-1 1.127888555590000e-1
1.146856012060000e-1 1.166142241860000e-1 1.185752602420000e-1 1.205692541170000e-1
1.225967597130000e-1 1.246583402370000e-1 1.267545683640000e-1 1.288860263940000e-1
1.310533064120000e-1 1.332570104540000e-1 1.354977506740000e-1 1.377761495150000e-1
1.400928398790000e-1 1.424484653070000e-1 1.448436801540000e-1 1.472791497730000e-1
1.497555506990000e-1 1.522735708380000e-1 1.548339096540000e-1 1.574372783710000e-1
1.600844001630000e-1 1.627760103570000e-1 1.655128566430000e-1 1.682956992710000e-1
1.711253112710000e-1 1.740024786660000e-1 1.769280006870000e-1 1.799026899970000e-1
1.829273729190000e-1 1.860028896610000e-1 1.891300945530000e-1 1.923098562840000e-1
1.955430581420000e-1 1.988305982580000e-1 2.021733898590000e-1 2.055723615200000e-1
2.090284574230000e-1 2.125426376140000e-1 2.161158782790000e-1 2.197491720080000e-1
2.234435280700000e-1 2.271999727020000e-1 2.310195493830000e-1 2.349033191320000e-1
2.388523607980000e-1 2.428677713630000e-1 2.469506662450000e-1 2.511021796070000e-1
2.553234646750000e-1 2.596156940540000e-1 2.639800600570000e-1 2.684177750380000e-1
2.729300717230000e-1 2.775182035570000e-1 2.821834450500000e-1 2.869270921330000e-1
2.917504625170000e-1 2.966548960560000e-1 3.016417551260000e-1 3.067124249970000e-1
3.118683142210000e-1 3.171108550230000e-1 3.224415036980000e-1 3.278617410160000e-1
3.333730726320000e-1 3.389770295090000e-1 3.446751683360000e-1 3.504690719670000e-1
3.563603498570000e-1 3.623506385100000e-1 3.684416019320000e-1 3.746349320980000e-1
3.809323494180000e-1 3.873356032130000e-1 3.938464722070000e-1 4.004667650160000e-1
4.071983206540001e-1 4.140430090400001e-1 4.210027315200000e-1 4.280794213960000e-1
4.352750444590000e-1 4.425915995420000e-1 4.500311190660000e-1 4.575956696130000e-1
4.652873524960000e-1 4.731083043430000e-1 4.810606976900000e-1 4.891467415870000e-1
4.973686822100000e-1 5.057288034830000e-1 5.142294277160000e-1 5.228729162490000e-1
5.316616701059999e-1 5.405981306630000e-1 5.496847803300000e-1 5.589241432320000e-1
5.683187859199999e-1 5.778713180770000e-1 5.875843932460000e-1 5.974607095650000e-1
6.075030105190001e-1 6.177140856999999e-1 6.280967715850000e-1 6.386539523190001e-1
6.493885605200001e-1 6.603035780930000e-1 6.714020370579999e-1 6.826870203910000e-1
6.941616628820000e-1 7.058291520060001e-1 7.176927288070000e-1 7.297556887990000e-1
7.420213828830001e-1 7.544932182729999e-1 7.671746594500000e-1 7.800692291170001e-1
7.931805091820000e-1 8.065121417509999e-1 8.200678301420000e-1 8.338513399100000e-1
8.478664998979999e-1 8.621172032950000e-1 8.766074087209999e-1 8.913411413280000e-1
9.063224939120001e-1 9.215556280570000e-1 9.370447752880001e-1 9.527942382439999e-1
9.688083918780000e-1 9.850916846690000e-1 1.001648639860000e0 1.018483856710000e0
1.035602011770000e0 1.053007860210000e0 1.070706237080000e0 1.088702058720000e0
1.107000324090000e0 1.125606116150000e0 1.144524603300000e0 1.163761040790000e0
1.183320772210000e0 1.203209230940000e0 1.223431941680000e0 1.243994521970000e0
1.264902683780000e0 1.286162235070000e0 1.307779081390000e0 1.329759227580000e0
1.352108779370000e0 1.374833945110000e0 1.397941037500000e0 1.421436475310000e0
1.445326785210000e0 1.469618603560000e0 1.494318678230000e0 1.519433870510000e0
1.544971157020000e0 1.570937631600000e0 1.597340507320000e0 1.624187118510000e0
1.651484922700000e0 1.679241502820000e0 1.707464569190000e0 1.736161961740000e0
1.765341652150000e0 1.795011746080000e0 1.825180485400000e0 1.855856250530000e0
1.887047562700000e0 1.918763086370000e0 1.951011631610000e0 1.983802156560000e0
2.017143769900000e0 2.051045733410000e0 2.085517464510000e0 2.120568538930000e0
2.156208693270000e0 2.192447827830000e0 2.229296009260000e0 2.266763473390000e0
2.304860628110000e0 2.343598056200000e0 2.382986518300000e0 2.423036955910000e0
2.463760494400000e0 2.505168446140000e0 2.547272313590000e0 2.590083792560000e0
2.633614775380000e0 2.677877354280000e0 2.722883824710000e0 2.768646688740000e0
2.815178658590000e0 2.862492660100000e0 2.910601836350000e0 2.959519551310000e0
3.009259393550000e0 3.059835180020000e0 3.111260959850000e0 3.163551018340000e0
3.216719880820000e0 3.270782316780000e0 3.325753343890000e0 3.381648232250000e0
3.438482508560000e0 3.496271960510000e0 3.555032641070000e0 3.614780873050000e0
3.675533253550000e0 3.737306658630000e0 3.800118247970000e0 3.863985469620000e0
3.928926064910000e0 3.994958073300000e0 4.062099837430000e0 4.130370008240000e0
4.199787550090000e0 4.270371746090000e0 4.342142203400000e0 4.415118858730000e0
4.489321983840000e0 4.564772191190000e0 4.641490439650000e0 4.719498040340000e0
4.798816662530000e0 4.879468339700000e0 4.961475475610000e0 5.044860850530000e0
5.129647627610000e0 5.215859359280000e0 5.303519993800000e0 5.392653881900000e0
5.483285783580000e0 5.575440874930000e0 5.669144755200000e0 5.764423453840000e0
5.861303437770000e0 5.959811618720000e0 6.059975360700000e0 6.161822487620000e0
6.265381291000000e0 6.370680537850000e0 6.477749478630000e0 6.586617855400000e0
6.697315910080000e0 6.809874392850000e0 6.924324570660000e0 7.040698235970000e0
7.159027715550000e0 7.279345879460000e0 7.401686150180000e0 7.526082511910000e0
7.652569520000000e0 7.781182310530000e0 7.911956610110000e0 8.044928745780000e0
8.180135655090000e0 8.317614896389999e0 8.457404659240000e0 8.599543775030000e0
8.744071727760000e0 8.891028665020000e0 9.040455409110001e0 9.192393468440001e0
9.346885048980001e0 9.503973066069999e0 9.663701156280000e0 9.826113689540000e0
9.991255781500000e0 1.015917330600000e1 1.032991290790000e1 1.050352201600000e1
1.068004885610000e1 1.085954246460000e1 1.104205270200000e1 1.122763026670000e1
1.141632670930000e1 1.160819444660000e1 1.180328677660000e1 1.200165789260000e1
1.220336289930000e1 1.240845782680000e1 1.261699964750000e1 1.282904629100000e1
1.304465666040000e1 1.326389064880000e1 1.348680915620000e1 1.371347410560000e1
1.394394846100000e1 1.417829624460000e1 1.441658255450000e1 1.465887358280000e1
1.490523663420000e1 1.515574014450000e1 1.541045369940000e1 1.566944805460000e1
1.593279515450000e1 1.620056815270000e1 1.647284143240000e1 1.674969062680000e1
1.703119264020000e1 1.731742566940000e1 1.760846922550000e1 1.790440415580000e1
1.820531266630000e1 1.851127834460000e1 1.882238618330000e1 1.913872260300000e1
1.946037547710000e1 1.978743415570000e1 2.011998949050000e1 2.045813386010000e1
2.080196119570000e1 2.115156700710000e1 2.150704840930000e1 2.186850414940000e1
2.223603463400000e1 2.260974195750000e1 2.298972992960000e1 2.337610410520000e1
2.376897181280000e1 2.416844218490001e1 2.457462618810000e1 2.498763665380000e1
2.540758830980000e1 2.583459781220000e1 2.626878377730000e1 2.671026681510000e1
2.715916956280000e1 2.761561671840000e1 2.807973507560000e1 2.855165355940000e1
2.903150326100000e1 2.951941747530000e1 3.001553173710001e1 3.051998385910000e1
3.103291397010000e1 3.155446455400000e1 3.208478048930000e1 3.262400908940000e1
3.317230014360000e1 3.372980595840000e1 3.429668140000000e1 3.487308393770000e1
3.545917368680000e1 3.605511345390000e1 3.666106878160000e1 3.727720799470000e1
3.790370224700000e1 3.854072556870000e1 3.918845491480000e1 3.984707021430000e1
4.051675442020001e1 4.119769356000000e1 4.189007678800000e1 4.259409643730001e1
4.330994807340001e1 4.403783054860000e1 4.477794605720000e1 4.553050019150001e1
4.629570199920000e1 4.707376404140000e1 4.786490245130000e1 4.866933699460001e1
4.948729113070001e1 5.031899207430000e1 5.116467085860000e1 5.202456240010001e1
5.289890556280000e1 5.378794322570000e1 5.469192234920000e1 5.561109404450001e1
5.654571364310001e1 5.749604076740000e1 5.846233940330000e1 5.944487797330001e1
6.044392941120001e1 6.145977123760001e1 6.249268563740000e1 6.354295953780000e1
6.461088468840001e1 6.569675774190000e1 6.680088033670001e1 6.792355918060000e1
6.906510613600000e1 7.022583830680000e1 7.140607812590000e1 7.260615344540000e1
7.382639762709999e1 7.506714963570001e1 7.632875413250000e1 7.761156157130000e1
7.891592829580000e1 8.024221663830000e1 8.159079502100001e1 8.296203805739999e1
8.435632665740000e1 8.577404813230000e1 8.721559630260002e1 8.868137160780000e1
9.017178121700001e1 9.168723914260001e1 9.322816635470000e1 9.479499089860001e1
9.638814801350001e1 9.800808025320002e1 9.965523760930001e1 1.013300776360000e2
1.030330655780000e2 1.047646744980000e2 1.065253854090000e2 1.083156874090000e2
1.101360778170000e2 1.119870623070000e2 1.138691550540000e2 1.157828788740000e2
1.177287653680000e2 1.197073550730000e2 1.217191976110000e2 1.237648518400000e2
1.258448860090000e2 1.279598779190000e2 1.301104150830000e2 1.322970948840000e2
1.345205247490000e2 1.367813223100000e2 1.390801155830000e2 1.414175431340000e2
1.437942542650000e2 1.462109091890000e2 1.486681792140000e2 1.511667469300000e2
1.537073064020000e2 1.562905633550000e2 1.589172353780000e2 1.615880521180000e2
1.643037554880000e2 1.670650998650000e2 1.698728523080000e2 1.727277927670000e2
1.756307142980000e2 1.785824232870000e2 1.815837396730000e2 1.846354971730000e2
1.877385435190000e2 1.908937406860000e2 1.941019651400000e2 1.973641080730000e2
2.006810756590000e2
</PP_R>
<PP_RAB>
1.169079443020000e-6 1.188727378390000e-6 1.208705523450000e-6 1.229019427810000e-6
1.249674734370000e-6 1.270677180830000e-6 1.292032601340000e-6 1.313746928110000e-6
1.335826193030000e-6 1.358276529370000e-6 1.381104173480000e-6 1.404315466510000e-6
1.427916856210000e-6 1.451914898660000e-6 1.476316260140000e-6 1.501127718960000e-6
1.526356167360000e-6 1.552008613400000e-6 1.578092182910000e-6 1.604614121520000e-6
1.631581796589999e-6 1.659002699320000e-6 1.686884446790000e-6 1.715234784130000e-6
1.744061586600000e-6 1.773372861840000e-6 1.803176752050000e-6 1.833481536290000e-6
1.864295632750000e-6 1.895627601090000e-6 1.927486144840000e-6 1.959880113810000e-6
1.992818506520000e-6 2.026310472740000e-6 2.060365316010000e-6 2.094992496230000e-6
2.130201632270000e-6 2.166002504700000e-6 2.202405058410000e-6 2.239419405460000e-6
2.277055827860000e-6 2.315324780420000e-6 2.354236893630000e-6 2.393802976670000e-6
2.434034020370000e-6 2.474941200290000e-6 2.516535879790000e-6 2.558829613220000e-6
2.601834149100000e-6 2.645561433419999e-6 2.690023612919999e-6 2.735233038510000e-6
2.781202268640000e-6 2.827944072840000e-6 2.875471435240000e-6 2.923797558200000e-6
2.972935865939999e-6 3.022900008320000e-6 3.073703864590000e-6 3.125361547240001e-6
3.177887405980000e-6 3.231296031660000e-6 3.285602260339999e-6 3.340821177450000e-6
3.396968121919999e-6 3.454058690480000e-6 3.512108742010001e-6 3.571134401880000e-6
3.631152066490000e-6 3.692178407809999e-6 3.754230377970000e-6 3.817325214050000e-6
3.881480442790000e-6 3.946713885500000e-6 4.013043662999999e-6 4.080488200650001e-6
4.149066233490000e-6 4.218796811410000e-6 4.289699304450000e-6 4.361793408220001e-6
4.435099149310000e-6 4.509636890910000e-6 4.585427338420000e-6 4.662491545240000e-6
4.740850918570000e-6 4.820527225420000e-6 4.901542598600001e-6 4.983919542920001e-6
5.067680941370000e-6 5.152850061570000e-6 5.239450562130000e-6 5.327506499319999e-6
5.417042333690000e-6 5.508082936859999e-6 5.600653598490000e-6 5.694780033250000e-6
5.790488387960001e-6 5.887805248909999e-6 5.986757649169999e-6 6.087373076170000e-6
6.189679479270001e-6 6.293705277579999e-6 6.399479367830001e-6 6.507031132390000e-6
6.616390447430000e-6 6.727587691260000e-6 6.840653752700000e-6 6.955620039730002e-6
7.072518488149999e-6 7.191381570530000e-6 7.312242305140000e-6 7.435134265180000e-6
7.560091588110001e-6 7.687148985089999e-6 7.816341750659999e-6 7.947705772530000e-6
8.081277541560000e-6 8.217094161870000e-6 8.355193361170000e-6 8.495613501239998e-6
8.638393588569999e-6 8.783573285229998e-6 8.931192919830000e-6 9.081293498779999e-6
9.233916717659998e-6 9.389104972780002e-6 9.546901372980001e-6 9.707349751619999e-6
9.870494678719998e-6 1.003638147340000e-5 1.020505621630000e-5 1.037656576270000e-5
1.055095775520000e-5 1.072828063710000e-5 1.090858366590000e-5 1.109191692710000e-5
1.127833134760000e-5 1.146787871040000e-5 1.166061166880000e-5 1.185658376110000e-5
1.205584942500000e-5 1.225846401350000e-5 1.246448380980000e-5 1.267396604280000e-5
1.288696890340000e-5 1.310355156040000e-5 1.332377417720000e-5 1.354769792800000e-5
1.377538501540000e-5 1.400689868710000e-5 1.424230325420000e-5 1.448166410810000e-5
1.472504773970000e-5 1.497252175690000e-5 1.522415490430000e-5 1.548001708150000e-5
1.574017936290000e-5 1.600471401760000e-5 1.627369452910000e-5 1.654719561600000e-5
1.682529325250000e-5 1.710806468970000e-5 1.739558847720000e-5 1.768794448440000e-5
1.798521392330000e-5 1.828747937050000e-5 1.859482479070000e-5 1.890733555970000e-5
1.922509848780000e-5 1.954820184470001e-5 1.987673538330000e-5 2.021079036520000e-5
2.055045958540000e-5 2.089583739880000e-5 2.124701974580000e-5 2.160410417940000e-5
2.196718989200000e-5 2.233637774290000e-5 2.271177028690000e-5 2.309347180200000e-5
2.348158831890000e-5 2.387622765020001e-5 2.427749942040000e-5 2.468551509660000e-5
2.510038801910000e-5 2.552223343300001e-5 2.595116852030000e-5 2.638731243230001e-5
2.683078632310000e-5 2.728171338249999e-5 2.774021887110000e-5 2.820643015449999e-5
2.868047673870000e-5 2.916249030640000e-5 2.965260475340000e-5 3.015095622570000e-5
3.065768315740000e-5 3.117292630950001e-5 3.169682880810000e-5 3.222953618530000e-5
3.277119641860000e-5 3.332195997279999e-5 3.388197984120000e-5 3.445141158850001e-5
3.503041339400000e-5 3.561914609500000e-5 3.621777323240000e-5 3.682646109520000e-5
3.744537876730000e-5 3.807469817430000e-5 3.871459413119999e-5 3.936524439090001e-5
4.002682969390000e-5 4.069953381800000e-5 4.138354362990000e-5 4.207904913669999e-5
4.278624353889999e-5 4.350532328380000e-5 4.423648812040000e-5 4.497994115490000e-5
4.573588890669999e-5 4.650454136620000e-5 4.728611205290000e-5 4.808081807470000e-5
4.888888018849999e-5 4.971052286119999e-5 5.054597433210000e-5 5.139546667640000e-5
5.225923586970000e-5 5.313752185349998e-5 5.403056860160000e-5 5.493862418850000e-5
5.586194085760000e-5 5.680077509170001e-5 5.775538768400001e-5 5.872604381110000e-5
5.971301310559999e-5 6.071656973220001e-5 6.173699246309999e-5 6.277456475550000e-5
6.382957483060001e-5 6.490231575360000e-5 6.599308551499999e-5 6.710218711340000e-5
6.822992863960000e-5 6.937662336260000e-5 7.054258981589999e-5 7.172815188670000e-5
7.293363890530000e-5 7.415938573700000e-5 7.540573287490000e-5 7.667302653460001e-5
7.796161875030000e-5 7.927186747240000e-5 8.060413666750000e-5 8.195879641890000e-5
8.333622302949999e-5 8.473679912689999e-5 8.616091376889999e-5 8.760896255210000e-5
8.908134772149999e-5 9.057847828260000e-5 9.210077011450002e-5 9.364864608590000e-5
9.522253617220001e-5 9.682287757539999e-5 9.845011484480001e-5 1.001047000010000e-4
1.017870926630000e-4 1.034977601710000e-4 1.052371777230000e-4 1.070058285010000e-4
1.088042038080000e-4 1.106328032040000e-4 1.124921346470000e-4 1.143827146270000e-4
1.163050683200000e-4 1.182597297240000e-4 1.202472418130000e-4 1.222681566870000e-4
1.243230357240000e-4 1.264124497370000e-4 1.285369791320000e-4 1.306972140700000e-4
1.328937546300000e-4 1.351272109770000e-4 1.373982035290000e-4 1.397073631320000e-4
1.420553312340000e-4 1.444427600640000e-4 1.468703128110000e-4 1.493386638120000e-4
1.518484987360000e-4 1.544005147740000e-4 1.569954208370000e-4 1.596339377490000e-4
1.623167984480000e-4 1.650447481890000e-4 1.678185447560000e-4 1.706389586640000e-4
1.735067733800000e-4 1.764227855380000e-4 1.793878051590000e-4 1.824026558800000e-4
1.854681751780000e-4 1.885852146060000e-4 1.917546400290000e-4 1.949773318620000e-4
1.982541853200000e-4 2.015861106580000e-4 2.049740334360000e-4 2.084188947620000e-4
2.119216515660000e-4 2.154832768580000e-4 2.191047600020000e-4 2.227871069880000e-4
2.265313407140000e-4 2.303385012680001e-4 2.342096462210000e-4 2.381458509160000e-4
2.421482087660000e-4 2.462178315650000e-4 2.503558497889999e-4 2.545634129150001e-4
2.588416897370000e-4 2.631918686920000e-4 2.676151581920000e-4 2.721127869570000e-4
2.766860043569999e-4 2.813360807600000e-4 2.860643078830000e-4 2.908719991530000e-4
2.957604900700000e-4 3.007311385820000e-4 3.057853254540000e-4 3.109244546610000e-4
3.161499537710000e-4 3.214632743460000e-4 3.268658923420000e-4 3.323593085200000e-4
3.379450488660000e-4 3.436246650100000e-4 3.493997346590000e-4 3.552718620370000e-4
3.612426783270000e-4 3.673138421280000e-4 3.734870399150000e-4 3.797639865020000e-4
3.861464255280000e-4 3.926361299330000e-4 3.992349024550000e-4 4.059445761270000e-4
4.127670147920000e-4 4.197041136150000e-4 4.267577996130000e-4 4.339300321880000e-4
4.412228036740000e-4 4.486381398860000e-4 4.561781006890000e-4 4.638447805639999e-4
4.716403091939999e-4 4.795668520540000e-4 4.876266110120000e-4 4.958218249420000e-4
5.041547703440000e-4 5.126277619810001e-4 5.212431535139999e-4 5.300033381630000e-4
5.389107493700001e-4 5.479678614730000e-4 5.571771903939999e-4 5.665412943390001e-4
5.760627745090000e-4 5.857442758209999e-4 5.955884876420000e-4 6.055981445400000e-4
6.157760270380001e-4 6.261249623930000e-4 6.366478253739999e-4 6.473475390670000e-4
6.582270756830000e-4 6.692894573859999e-4 6.805377571309999e-4 6.919750995169998e-4
7.036046616589999e-4 7.154296740640000e-4 7.274534215349999e-4 7.396792440780001e-4
7.521105378330000e-4 7.647507560190001e-4 7.776034098880001e-4 7.906720697040002e-4
8.039603657350000e-4 8.174719892589998e-4 8.312106935920001e-4 8.451802951289999e-4
8.593846744049999e-4 8.738277771719998e-4 8.885136154950001e-4 9.034462688700000e-4
9.186298853509999e-4 9.340686827070000e-4 9.497669495920000e-4 9.657290467370000e-4
9.819594081600000e-4 9.984625423990000e-4 1.015243033770000e-3 1.032305543610000e-3
1.049654811640000e-3 1.067295657190000e-3 1.085232980630000e-3 1.103471764650000e-3
1.122017075700000e-3 1.140874065370000e-3 1.160047971840000e-3 1.179544121320000e-3
1.199367929530000e-3 1.219524903210000e-3 1.240020641640000e-3 1.260860838230000e-3
1.282051282050000e-3 1.303597859470000e-3 1.325506555790000e-3 1.347783456890000e-3
1.370434750960000e-3 1.393466730160000e-3 1.416885792400000e-3 1.440698443150000e-3
1.464911297170000e-3 1.489531080420000e-3 1.514564631880000e-3 1.540018905470000e-3
1.565900972000000e-3 1.592218021090000e-3 1.618977363200000e-3 1.646186431650000e-3
1.673852784700000e-3 1.701984107620000e-3 1.730588214840000e-3 1.759673052140000e-3
1.789246698830000e-3 1.819317369990000e-3 1.849893418790000e-3 1.880983338760000e-3
1.912595766210000e-3 1.944739482550000e-3 1.977423416810000e-3 2.010656648060000e-3
2.044448407990000e-3 2.078808083390000e-3 2.113745218850000e-3 2.149269519350000e-3
2.185390852980000e-3 2.222119253680000e-3 2.259464924010000e-3 2.297438238020000e-3
2.336049744089999e-3 2.375310167889999e-3 2.415230415340000e-3 2.455821575660000e-3
2.497094924430000e-3 2.539061926730000e-3 2.581734240350000e-3 2.625123718959999e-3
2.669242415490000e-3 2.714102585400000e-3 2.759716690150000e-3 2.806097400620000e-3
2.853257600630000e-3 2.901210390540000e-3 2.949969090890000e-3 2.999547246060001e-3
3.049958628090000e-3 3.101217240450000e-3 3.153337322000000e-3 3.206333350850000e-3
3.260220048470000e-3 3.315012383740000e-3 3.370725577090000e-3 3.427375104780000e-3
3.484976703150000e-3 3.543546373010000e-3 3.603100384100000e-3 3.663655279570000e-3